/*--------------------------------*- C++ -*----------------------------------*\
| =========                 |                                                 |
| \\      /  F ield         | OpenFOAM: The Open Source CFD Toolbox           |
|  \\    /   O peration     | Version:  2312                                  |
|   \\  /    A nd           | Website:  www.openfoam.com                      |
|    \\/     M anipulation  |                                                 |
\*---------------------------------------------------------------------------*/
FoamFile
{
    version     2.0;
    format      ascii;
    arch        "LSB;label=32;scalar=64";
    class       volScalarField;
    location    "0.7";
    object      p;
}
// * * * * * * * * * * * * * * * * * * * * * * * * * * * * * * * * * * * * * //

dimensions      [0 2 -2 0 0 0 0];

internalField   nonuniform List<scalar> 
1600
(
5.50377e-06
-0.00118221
-0.00391326
-0.00758841
-0.0115347
-0.0152563
-0.0183953
-0.0206993
-0.0220007
-0.0221998
-0.0212508
-0.0191519
-0.0159365
-0.0116676
-0.00643248
-0.00033891
0.00648813
0.0139092
0.0217729
0.0299183
0.0381771
0.0463768
0.0543427
0.0619021
0.0688872
0.0751394
0.080514
0.084885
0.0881509
0.09024
0.0911175
0.090792
0.089324
0.0868344
0.0835167
0.07965
0.0756148
0.0719198
0.0692333
0.068117
0.00119855
7.53347e-06
-0.00220971
-0.00506193
-0.00810562
-0.0109754
-0.0133867
-0.0151263
-0.0160439
-0.0160437
-0.0150756
-0.013128
-0.0102218
-0.00640515
-0.00174922
0.00365531
0.00970125
0.0162676
0.0232219
0.0304227
0.0377222
0.0449682
0.0520075
0.0586889
0.0648664
0.0704032
0.0751758
0.0790786
0.0820286
0.0839707
0.0848829
0.0847823
0.0837307
0.0818412
0.0792845
0.0762946
0.0731735
0.0702973
0.0681135
0.0670026
0.00394429
0.00221612
-3.15582e-05
-0.00259183
-0.0052215
-0.00765068
-0.0096557
-0.0110649
-0.0117525
-0.0116348
-0.0106659
-0.00883239
-0.00614972
-0.00265767
0.00158287
0.00649291
0.011978
0.0179306
0.0242325
0.0307568
0.0373705
0.043937
0.0503183
0.0563787
0.0619874
0.0670225
0.0713743
0.0749502
0.0776781
0.0795117
0.0804343
0.0804637
0.0796562
0.0781108
0.0759716
0.0734297
0.070725
0.0681395
0.0659317
0.0643136
0.00770932
0.0050971
0.00245506
-0.000174878
-0.00273086
-0.00501301
-0.00684707
-0.00810127
-0.00867716
-0.00850795
-0.00755698
-0.00581484
-0.00329639
-3.78457e-05
0.00390579
0.00846316
0.0135487
0.0190647
0.0249032
0.0309485
0.0370785
0.0431677
0.0490893
0.0547184
0.0599343
0.0646248
0.0686888
0.0720407
0.0746139
0.0763649
0.0772768
0.0773628
0.0766694
0.0752783
0.0733066
0.0709061
0.0682694
0.0656114
0.0630194
0.0605498
0.0118993
0.00825821
0.00504838
0.00216676
-0.00049182
-0.00278349
-0.00457568
-0.00577372
-0.00630643
-0.00612546
-0.00520585
-0.00354464
-0.00115893
0.00191601
0.00562861
0.0099128
0.0146897
0.0198693
0.025352
0.0310307
0.0367924
0.0425202
0.0480961
0.053403
0.0583279
0.0627649
0.0666183
0.0698063
0.0722645
0.0739486
0.0748386
0.0749403
0.0742883
0.0729462
0.0710048
0.068581
0.0658284
0.0629103
0.0597558
0.0562845
0.016088
0.0113751
0.00750482
0.00425372
0.00137029
-0.00104454
-0.00289178
-0.00410946
-0.0046518
-0.00448874
-0.00360797
-0.00201446
0.00027054
0.00321075
0.006756
0.0108435
0.0153992
0.0203385
0.0255685
0.0309886
0.0364926
0.0419702
0.0473096
0.0523993
0.0571311
0.0614029
0.0651214
0.0682058
0.0705907
0.0722289
0.0730944
0.0731843
0.0725199
0.0711473
0.0691335
0.0665655
0.0635671
0.0602636
0.0564468
0.0519235
0.0199659
0.0141864
0.00960917
0.00591265
0.00271967
9.97668e-05
-0.00187407
-0.00316762
-0.00375781
-0.00363184
-0.00279006
-0.00124621
0.000973135
0.00382917
0.0072715
0.0112389
0.0156602
0.0204548
0.0255341
0.0308023
0.0361581
0.0414956
0.046707
0.051684
0.0563209
0.0605166
0.0641779
0.0672224
0.0695811
0.0712018
0.0720505
0.0721142
0.0714011
0.0699404
0.0677785
0.064978
0.0616412
0.0578678
0.0533332
0.0477536
0.0233001
0.0164782
0.0111763
0.00699083
0.00343573
0.000558022
-0.00158895
-0.00299423
-0.00365461
-0.00357308
-0.00276222
-0.00124474
0.000946737
0.00376985
0.00717273
0.0110944
0.0154649
0.0202061
0.0252323
0.0304508
0.0357631
0.0410661
0.0462539
0.0512195
0.0558574
0.0600655
0.0637483
0.0668194
0.0692046
0.0708441
0.0716951
0.0717333
0.0709537
0.0693702
0.0670114
0.0639201
0.0601842
0.0558878
0.0506067
0.0439832
0.0259082
0.0180713
0.0120417
0.00734488
0.00339798
0.000232037
-0.0021144
-0.00364982
-0.00438837
-0.00434733
-0.00355081
-0.00203043
0.000174769
0.00301816
0.00644548
0.0103948
0.0147964
0.0195733
0.0246412
0.0299089
0.0352794
0.0406507
0.0459173
0.0509717
0.0557064
0.0600166
0.0638025
0.0669718
0.0694429
0.0711472
0.0720315
0.0720596
0.0712132
0.0694921
0.0669093
0.0634921
0.0593196
0.0544673
0.0484235
0.0407679
0.0276398
0.0188099
0.0120555
0.00683773
0.0024849
-0.000983411
-0.00353982
-0.00520936
-0.00602148
-0.00600646
-0.00519928
-0.00364024
-0.00137506
0.00154493
0.00506235
0.0091135
0.013628
0.0185288
0.0237319
0.0291466
0.0346762
0.0402182
0.045666
0.05091
0.0558396
0.0603451
0.0643206
0.0676663
0.0702915
0.0721171
0.0730782
0.0731258
0.0722284
0.0703721
0.0675563
0.0637957
0.0591645
0.0537351
0.0469161
0.0382307
0.028362
0.0185526
0.0110772
0.00533624
0.000573984
-0.00319857
-0.00596279
-0.00775822
-0.00862813
-0.00861484
-0.00776368
-0.00612353
-0.00374685
-0.000690068
0.00298582
0.00721472
0.0119248
0.0170381
0.0224702
0.0281299
0.0339195
0.0397353
0.0454683
0.0510055
0.0562315
0.0610306
0.065289
0.0688978
0.0717552
0.0737701
0.0748645
0.0749757
0.0740582
0.0720849
0.0690422
0.0649344
0.0598335
0.0538126
0.046204
0.0364776
0.0279493
0.017164
0.00896992
0.00270782
-0.00245988
-0.00652912
-0.00948854
-0.011391
-0.0122928
-0.0122476
-0.011311
-0.00954026
-0.00699487
-0.00373661
0.00016952
0.00465453
0.00964462
0.0150604
0.0208163
0.0268198
0.0329719
0.0391665
0.0452914
0.0512292
0.0568585
0.0620559
0.0666987
0.0706666
0.0738456
0.0761307
0.077429
0.0776626
0.0767713
0.0747138
0.0714642
0.0670168
0.0614435
0.0548201
0.0464032
0.0356096
0.0262762
0.0145092
0.00559575
-0.00118303
-0.00674669
-0.0110974
-0.0142303
-0.0162113
-0.0171094
-0.0169897
-0.0159178
-0.0139598
-0.0111823
-0.00765282
-0.00344065
0.00138201
0.00673899
0.0125491
0.0187253
0.0251736
0.0317927
0.038474
0.0451012
0.0515517
0.0576972
0.0634057
0.0685436
0.072978
0.0765807
0.0792308
0.0808187
0.0812494
0.0804461
0.0783524
0.0749289
0.0701602
0.0641184
0.0568834
0.0476338
0.035732
0.023212
0.0104484
0.000811557
-0.006478
-0.0124236
-0.0170336
-0.02031
-0.0223318
-0.023181
-0.0229348
-0.0216692
-0.0194595
-0.0163798
-0.0125037
-0.00790501
-0.00265948
0.00315427
0.00945318
0.0161485
0.0231446
0.030338
0.0376171
0.0448615
0.0519426
0.0587245
0.0650655
0.0708199
0.0758408
0.0799835
0.0831091
0.0850889
0.0858084
0.0851719
0.0831055
0.079555
0.0744936
0.0679939
0.0601398
0.0500272
0.0369613
0.0186162
0.00483255
-0.00553487
-0.0133281
-0.0196373
-0.0244777
-0.0278589
-0.029874
-0.0306192
-0.0301845
-0.0286574
-0.026123
-0.0226636
-0.0183591
-0.0132883
-0.00753044
-0.00116665
0.00571823
0.013034
0.0206835
0.0285615
0.0365532
0.0445342
0.0523699
0.0599163
0.067021
0.0735252
0.0792662
0.0840809
0.0878099
0.0903026
0.0914217
0.0910495
0.0890916
0.085476
0.0801624
0.0732225
0.0647436
0.0537324
0.0394324
0.0123357
-0.0025
-0.0136085
-0.0218969
-0.0285466
-0.033581
-0.0370187
-0.0389689
-0.0395437
-0.0388473
-0.0369803
-0.0340386
-0.0301135
-0.0252917
-0.0196573
-0.0132929
-0.00628214
0.00128889
0.009329
0.0177402
0.0264156
0.0352385
0.0440803
0.0528008
0.0612478
0.0692577
0.0766577
0.0832675
0.0889036
0.0933834
0.0965308
0.0981821
0.0981931
0.0964451
0.0928438
0.0873321
0.0799785
0.0708724
0.0589221
0.0433043
0.00420056
-0.0117277
-0.0235908
-0.0323638
-0.0393249
-0.044508
-0.0479427
-0.049757
-0.0500815
-0.0490372
-0.0467394
-0.0432966
-0.0388099
-0.0333738
-0.0270776
-0.0200075
-0.0122489
-0.00388859
0.00498209
0.0142652
0.0238536
0.033629
0.0434602
0.0532018
0.0626935
0.0717608
0.0802157
0.0878594
0.0944855
0.099885
0.103853
0.106193
0.106732
0.105318
0.101832
0.096193
0.0884636
0.0787325
0.0657988
0.0487665
-0.0059786
-0.0230498
-0.0356841
-0.044928
-0.0521639
-0.0574386
-0.0607965
-0.0623881
-0.0623661
-0.0608716
-0.0580373
-0.0539861
-0.0488306
-0.0426736
-0.0356101
-0.0277294
-0.019118
-0.00986263
-5.33211e-05
0.0102134
0.0208318
0.0316836
0.0426361
0.05354
0.0642283
0.0745153
0.0841981
0.0930577
0.100863
0.107375
0.112355
0.115572
0.11681
0.115885
0.11264
0.106966
0.0989132
0.0885666
0.0746027
0.0560458
-0.0184152
-0.0366912
-0.0501165
-0.0598129
-0.0672763
-0.0725708
-0.0757598
-0.0770216
-0.0765363
-0.0744693
-0.0709743
-0.0661913
-0.060246
-0.0532506
-0.0453057
-0.0365034
-0.0269304
-0.0166718
-0.00581468
0.00554787
0.0173133
0.0293659
0.0415736
0.0537852
0.0658281
0.077507
0.088604
0.0988794
0.108075
0.11592
0.122135
0.126446
0.128593
0.128344
0.125497
0.119906
0.111603
0.100661
0.085619
0.0654135
-0.0333515
-0.0529088
-0.0671483
-0.0772719
-0.0849012
-0.090123
-0.0930266
-0.0938254
-0.0927337
-0.0899469
-0.0856442
-0.0799862
-0.0731138
-0.0651493
-0.0561994
-0.0463579
-0.0357106
-0.0243389
-0.012325
0.000244274
0.0132724
0.0266491
0.0402457
0.053912
0.0674722
0.0807233
0.0934334
0.105342
0.116163
0.125588
0.133295
0.138958
0.142263
0.142919
0.140668
0.135314
0.126858
0.115356
0.0991886
0.0771953
-0.0510657
-0.072
-0.0870806
-0.0975959
-0.105309
-0.110338
-0.112807
-0.112975
-0.1111
-0.107414
-0.102128
-0.0954279
-0.0874713
-0.0783921
-0.0683026
-0.0572976
-0.0454598
-0.0328648
-0.0195865
-0.00570273
0.00869986
0.0235199
0.0386361
0.0539029
0.069145
0.0841544
0.0986876
0.112464
0.125169
0.136454
0.145948
0.153266
0.158027
0.159868
0.15846
0.153538
0.145062
0.133057
0.115719
0.091782
-0.0718815
-0.0943141
-0.110267
-0.121122
-0.128808
-0.133486
-0.135328
-0.134652
-0.131771
-0.126967
-0.120488
-0.112548
-0.103327
-0.0929702
-0.0815946
-0.0692947
-0.0561476
-0.0422198
-0.0275735
-0.0122731
0.00360855
0.0199839
0.0367439
0.0537522
0.0708389
0.0877954
0.10437
0.120265
0.135136
0.148594
0.160212
0.169539
0.176113
0.179483
0.179226
0.174991
0.166672
0.154249
0.135703
0.109644
-0.0961823
-0.120269
-0.137127
-0.148249
-0.155755
-0.15987
-0.160832
-0.159039
-0.154875
-0.148682
-0.140755
-0.131344
-0.120651
-0.108833
-0.0960124
-0.0822796
-0.0677029
-0.0523359
-0.0362243
-0.0194144
-0.00195968
0.0160715
0.0345881
0.0534694
0.072557
0.0916475
0.110486
0.128763
0.146105
0.162083
0.176211
0.18796
0.196773
0.202092
0.203376
0.200155
0.192235
0.17952
0.159736
0.131353
-0.124431
-0.150373
-0.168174
-0.179452
-0.186565
-0.189829
-0.189579
-0.186316
-0.180517
-0.1726
-0.162919
-0.151763
-0.139358
-0.125876
-0.111439
-0.0961298
-0.0800044
-0.0630975
-0.0454335
-0.0270343
-0.00792793
0.011843
0.0322126
0.0530831
0.0743152
0.0957187
0.117044
0.137973
0.158113
0.176994
0.194068
0.208719
0.220283
0.228067
0.231382
0.229602
0.222403
0.209581
0.188545
0.157602
-0.157199
-0.185261
-0.204039
-0.215304
-0.221725
-0.223747
-0.221841
-0.216649
-0.208771
-0.198717
-0.186911
-0.173688
-0.1593
-0.143928
-0.127691
-0.11066
-0.0928705
-0.0743335
-0.0550445
-0.0349944
-0.0141787
0.00739344
0.0296894
0.052643
0.0761436
0.100024
0.12405
0.147906
0.171187
0.193386
0.213896
0.232009
0.246933
0.257818
0.263786
0.264004
0.257967
0.245305
0.22303
0.189248
-0.195212
-0.22574
-0.245516
-0.256514
-0.261811
-0.262051
-0.257896
-0.250181
-0.239659
-0.22696
-0.212586
-0.196921
-0.180243
-0.162735
-0.144507
-0.12561
-0.106052
-0.0858099
-0.064844
-0.043106
-0.0205505
0.00285497
0.0271202
0.0522208
0.0780856
0.104584
0.131508
0.15856
0.185333
0.211299
0.235792
0.258011
0.277025
0.291795
0.301207
0.304159
0.299888
0.287776
0.264316
0.227358
-0.239415
-0.272866
-0.293627
-0.303959
-0.307507
-0.305213
-0.298015
-0.287002
-0.273127
-0.25716
-0.239693
-0.221158
-0.201849
-0.181946
-0.161536
-0.140639
-0.119224
-0.0972266
-0.0745601
-0.0511288
-0.026838
-0.00160407
0.0246349
0.0519072
0.0801943
0.109415
0.139407
0.169908
0.200527
0.23073
0.259811
0.286877
0.310849
0.330473
0.344343
0.351006
0.349338
0.33835
0.313834
0.273285
-0.291076
-0.328048
-0.349706
-0.358743
-0.359624
-0.353744
-0.342434
-0.32712
-0.309007
-0.289022
-0.26785
-0.245965
-0.223663
-0.2011
-0.178328
-0.155318
-0.131988
-0.108218
-0.0838646
-0.0587754
-0.0327968
-0.00578483
0.0223847
0.0518047
0.082523
0.114525
0.147714
0.181884
0.21669
0.251617
0.28594
0.318696
0.348657
0.374332
0.393965
0.40565
0.407759
0.398753
0.373435
0.328783
-0.351952
-0.393221
-0.415523
-0.422256
-0.419111
-0.408169
-0.391312
-0.370411
-0.346963
-0.322073
-0.296506
-0.270753
-0.245087
-0.219617
-0.194331
-0.169134
-0.143873
-0.118359
-0.0923823
-0.0657214
-0.0381551
-0.00947016
0.0205299
0.0520142
0.0851116
0.119893
0.156349
0.194361
0.233662
0.273794
0.314056
0.353446
0.390612
0.423814
0.450893
0.46937
0.47693
0.471206
0.445572
0.396185
-0.424568
-0.471102
-0.493462
-0.496255
-0.487053
-0.468973
-0.444658
-0.416531
-0.386427
-0.355611
-0.324897
-0.294749
-0.265373
-0.23679
-0.208894
-0.181494
-0.15435
-0.127185
-0.0997091
-0.0716243
-0.0426329
-0.0124442
0.0192195
0.0526145
0.0879649
0.125446
0.165162
0.207115
0.251159
0.296949
0.343863
0.390924
0.436706
0.479243
0.51594
0.543618
0.559036
0.558612
0.533574
0.4787
-0.512687
-0.565606
-0.586759
-0.582928
-0.564624
-0.536497
-0.5022
-0.464812
-0.426499
-0.388635
-0.352004
-0.316972
-0.283608
-0.251792
-0.221278
-0.191751
-0.162855
-0.134212
-0.105438
-0.0761513
-0.0459698
-0.0145197
0.0185644
0.053635
0.0910239
0.13103
0.173897
0.219786
0.268727
0.320551
0.374805
0.430634
0.486635
0.540697
0.589799
0.629961
0.656741
0.664797
0.642079
0.580927
-0.62218
-0.682503
-0.699818
-0.684927
-0.652951
-0.610739
-0.563194
-0.514084
-0.465825
-0.41976
-0.37651
-0.336218
-0.298725
-0.263693
-0.230688
-0.199231
-0.168825
-0.138976
-0.109198
-0.0790145
-0.0479593
-0.0155718
0.0186045
0.0550233
0.0941337
0.136373
0.182153
0.231833
0.285675
0.343775
0.405961
0.471643
0.539615
0.607787
0.67283
0.729938
0.77321
0.794828
0.777718
0.70978
-0.762665
-0.830471
-0.838575
-0.805283
-0.752827
-0.691012
-0.626118
-0.562463
-0.502454
-0.447145
-0.396765
-0.351064
-0.309523
-0.271501
-0.236314
-0.203282
-0.171745
-0.14108
-0.110692
-0.0800122
-0.0484876
-0.0155741
0.0192741
0.0566122
0.0970103
0.141056
0.189348
0.242482
0.301016
0.365408
0.435908
0.512396
0.594121
0.679328
0.764687
0.84474
0.912003
0.955383
0.950209
0.876246
-0.950828
-1.02278
-1.01076
-0.946972
-0.864062
-0.775346
-0.688217
-0.607035
-0.533662
-0.468409
-0.410781
-0.359895
-0.314721
-0.274218
-0.237393
-0.203332
-0.171202
-0.140242
-0.109751
-0.0790704
-0.0475713
-0.0146329
0.0203716
0.0580916
0.0992145
0.144479
0.194684
0.25069
0.313407
0.383754
0.462572
0.550463
0.647513
0.752812
0.863646
0.974497
1.07659
1.15498
1.17409
1.09895
-1.21718
-1.27972
-1.22551
-1.11154
-0.984074
-0.859373
-0.744754
-0.643428
-0.555739
-0.480567
-0.416236
-0.360955
-0.313022
-0.270908
-0.233272
-0.198951
-0.166936
-0.136338
-0.106361
-0.0762746
-0.0453844
-0.0130107
0.0215384
0.0589907
0.100136
0.145852
0.197134
0.255117
0.321101
0.396549
0.483056
0.582242
0.695515
0.823565
0.965377
1.11672
1.26885
1.40349
1.47115
1.41123
-1.61772
-1.63096
-1.49153
-1.29672
-1.10589
-0.935008
-0.788314
-0.665547
-0.563984
-0.48014
-0.410639
-0.352514
-0.303264
-0.260828
-0.223513
-0.189926
-0.158901
-0.12945
-0.100706
-0.0718888
-0.0422668
-0.0111234
0.022273
0.0587028
0.09903
0.144244
0.195506
0.254207
0.322031
0.401027
0.493664
0.602855
0.731869
0.883985
1.06156
1.26423
1.48651
1.71009
1.8724
1.87275
-2.25447
-2.11587
-1.81359
-1.49443
-1.21742
-0.990516
-0.809418
-0.666455
-0.553626
-0.464013
-0.392067
-0.33347
-0.2849
-0.243802
-0.208185
-0.17648
-0.147424
-0.119968
-0.0932177
-0.0663774
-0.0387078
-0.00948778
0.0220224
0.0566197
0.0952022
0.138822
0.188751
0.246573
0.314297
0.394509
0.490574
0.606864
0.748998
0.923953
1.13978
1.40422
1.72095
2.0794
2.41785
2.58911
-3.35592
-2.78318
-2.1727
-1.67585
-1.29258
-1.00573
-0.79415
-0.637275
-0.519331
-0.429174
-0.358973
-0.303182
-0.257837
-0.220057
-0.1877
-0.159133
-0.133076
-0.10849
-0.0845018
-0.0603445
-0.0353095
-0.008707
0.0201724
0.0520989
0.0879507
0.128775
0.175866
0.230883
0.296006
0.374179
0.469463
0.587557
0.736539
0.927903
1.17798
1.50835
1.941
2.49109
3.15796
3.79445
-5.52067
-3.66081
-2.43095
-1.71418
-1.24179
-0.921817
-0.70487
-0.553971
-0.445495
-0.365211
-0.304188
-0.256571
-0.218403
-0.18692
-0.160127
-0.136534
-0.114985
-0.0945556
-0.0744693
-0.0540485
-0.0326684
-0.00972105
0.0154196
0.0434353
0.0751069
0.111372
0.153404
0.202723
0.261375
0.332201
0.419283
0.528683
0.669688
0.857081
1.11542
1.48392
2.01598
2.80541
4.12343
6.09141
-9.20662
-4.51956
-2.30623
-1.42119
-0.958945
-0.68291
-0.512256
-0.400584
-0.322917
-0.266417
-0.223893
-0.190914
-0.164572
-0.142855
-0.12431
-0.107838
-0.0925784
-0.0778342
-0.0630147
-0.0475987
-0.0311034
-0.0130578
0.00702324
0.0296653
0.0554671
0.0851415
0.119573
0.159898
0.207639
0.264906
0.334759
0.421864
0.533767
0.683754
0.897458
1.22412
1.75392
2.73326
5.06142
9.86894
)
;

boundaryField
{
    movingWall
    {
        type            zeroGradient;
    }
    fixedWalls
    {
        type            zeroGradient;
    }
    frontAndBack
    {
        type            empty;
    }
}


// ************************************************************************* //
