/*--------------------------------*- C++ -*----------------------------------*\
| =========                 |                                                 |
| \\      /  F ield         | OpenFOAM: The Open Source CFD Toolbox           |
|  \\    /   O peration     | Version:  2312                                  |
|   \\  /    A nd           | Website:  www.openfoam.com                      |
|    \\/     M anipulation  |                                                 |
\*---------------------------------------------------------------------------*/
FoamFile
{
    version     2.0;
    format      ascii;
    arch        "LSB;label=32;scalar=64";
    class       volVectorField;
    location    "0.7";
    object      U;
}
// * * * * * * * * * * * * * * * * * * * * * * * * * * * * * * * * * * * * * //

dimensions      [0 1 -1 0 0 0 0];

internalField   nonuniform List<vector> 
1600
(
(6.05218e-05 -6.05565e-05 0)
(0.000155976 -5.7165e-05 0)
(0.000156964 -7.04921e-06 0)
(6.62287e-06 5.24514e-05 0)
(-0.000303453 0.000107994 0)
(-0.000756861 0.000154865 0)
(-0.00132912 0.000191701 0)
(-0.00199326 0.000218547 0)
(-0.00272203 0.000235977 0)
(-0.00348915 0.000244738 0)
(-0.00426986 0.000245623 0)
(-0.0050413 0.000239416 0)
(-0.0057826 0.000226878 0)
(-0.00647498 0.000208744 0)
(-0.00710182 0.000185723 0)
(-0.00764861 0.000158506 0)
(-0.00810303 0.000127775 0)
(-0.00845492 9.42108e-05 0)
(-0.00869636 5.85021e-05 0)
(-0.00882171 2.13575e-05 0)
(-0.00882768 -1.64884e-05 0)
(-0.00871341 -5.42688e-05 0)
(-0.00848058 -9.11808e-05 0)
(-0.0081335 -0.000126385 0)
(-0.00767918 -0.00015901 0)
(-0.0071274 -0.000188156 0)
(-0.00649074 -0.00021291 0)
(-0.00578453 -0.000232359 0)
(-0.00502684 -0.000245602 0)
(-0.00423826 -0.000251773 0)
(-0.00344173 -0.000250057 0)
(-0.00266219 -0.000239715 0)
(-0.00192617 -0.000220111 0)
(-0.00126119 -0.000190764 0)
(-0.00069482 -0.000151472 0)
(-0.000253324 -0.000102657 0)
(4.07879e-05 -4.62028e-05 0)
(0.000174377 1.26563e-05 0)
(0.000160408 6.02176e-05 0)
(6.02868e-05 6.0051e-05 0)
(5.86791e-05 -0.000157054 0)
(7.25316e-05 -6.95152e-05 0)
(-0.000178575 0.000182402 0)
(-0.0007731 0.000477124 0)
(-0.00172554 0.000761302 0)
(-0.00300934 0.00100978 0)
(-0.0045759 0.00121123 0)
(-0.00636581 0.00136177 0)
(-0.00831527 0.0014613 0)
(-0.01036 0.00151171 0)
(-0.0124378 0.00151599 0)
(-0.0144896 0.00147769 0)
(-0.016461 0.00140069 0)
(-0.0183023 0.00128904 0)
(-0.0199692 0.00114688 0)
(-0.0214229 0.000978413 0)
(-0.0226304 0.000787895 0)
(-0.0235644 0.000579662 0)
(-0.0242039 0.000358148 0)
(-0.0245339 0.000127916 0)
(-0.0245458 -0.000106315 0)
(-0.024238 -0.000339661 0)
(-0.0236152 -0.000567057 0)
(-0.0226896 -0.000783283 0)
(-0.0214803 -0.00098299 0)
(-0.0200137 -0.00116076 0)
(-0.0183235 -0.00131118 0)
(-0.0164504 -0.00142895 0)
(-0.014442 -0.00150902 0)
(-0.0123519 -0.00154673 0)
(-0.0102391 -0.00153799 0)
(-0.00816715 -0.00147951 0)
(-0.00620212 -0.00136913 0)
(-0.00441078 -0.0012063 0)
(-0.00285758 -0.000992905 0)
(-0.00160028 -0.000735004 0)
(-0.000683372 -0.000446157 0)
(-0.000126995 -0.000153537 0)
(9.20156e-05 8.84043e-05 0)
(6.17665e-05 0.000160799 0)
(1.14532e-05 -0.000162874 0)
(-0.000172008 0.000178522 0)
(-0.000804401 0.000814257 0)
(-0.00193188 0.00153698 0)
(-0.00355534 0.00223963 0)
(-0.0056388 0.00286272 0)
(-0.00811744 0.00337463 0)
(-0.0109097 0.00376097 0)
(-0.0139261 0.00401758 0)
(-0.0170745 0.00414641 0)
(-0.0202642 0.00415315 0)
(-0.0234083 0.00404579 0)
(-0.0264254 0.00383378 0)
(-0.0292411 0.00352742 0)
(-0.0317884 0.00313764 0)
(-0.0340087 0.00267574 0)
(-0.0358516 0.00215336 0)
(-0.037276 0.00158248 0)
(-0.0382499 0.000975371 0)
(-0.0387507 0.000344713 0)
(-0.0387658 -0.000296421 0)
(-0.0382928 -0.000934529 0)
(-0.0373396 -0.0015557 0)
(-0.0359247 -0.00214566 0)
(-0.0340775 -0.00268991 0)
(-0.0318384 -0.00317387 0)
(-0.0292583 -0.00358313 0)
(-0.0263986 -0.00390374 0)
(-0.0233304 -0.00412262 0)
(-0.0201339 -0.00422801 0)
(-0.0168964 -0.00421002 0)
(-0.0137108 -0.00406138 0)
(-0.010673 -0.00377839 0)
(-0.0078786 -0.00336233 0)
(-0.00541802 -0.00282163 0)
(-0.00337081 -0.00217564 0)
(-0.00179666 -0.00146101 0)
(-0.000723498 -0.000741559 0)
(-0.000138958 -0.000126555 0)
(1.76719e-05 0.000180128 0)
(-4.543e-05 -2.20191e-05 0)
(-0.000464587 0.000768375 0)
(-0.00153607 0.00194226 0)
(-0.0032432 0.00322802 0)
(-0.00555688 0.00446997 0)
(-0.0084261 0.00557319 0)
(-0.0117698 0.00648264 0)
(-0.0154881 0.00717023 0)
(-0.0194711 0.00762531 0)
(-0.0236054 0.00784859 0)
(-0.0277781 0.00784819 0)
(-0.0318804 0.00763714 0)
(-0.0358097 0.00723172 0)
(-0.0394717 0.00665033 0)
(-0.0427812 0.00591284 0)
(-0.0456633 0.00504019 0)
(-0.0480539 0.00405413 0)
(-0.0499003 0.00297714 0)
(-0.0511616 0.0018324 0)
(-0.0518093 0.000643857 0)
(-0.0518272 -0.000563821 0)
(-0.0512125 -0.0017652 0)
(-0.0499756 -0.00293416 0)
(-0.0481403 -0.00404399 0)
(-0.0457446 -0.0050677 0)
(-0.0428399 -0.00597826 0)
(-0.0394911 -0.00674915 0)
(-0.0357763 -0.00735491 0)
(-0.0317856 -0.00777191 0)
(-0.0276198 -0.00797926 0)
(-0.0233887 -0.00795993 0)
(-0.0192084 -0.00770213 0)
(-0.0151979 -0.00720114 0)
(-0.0114751 -0.00646174 0)
(-0.00815128 -0.00550182 0)
(-0.00532457 -0.00435786 0)
(-0.00307038 -0.00309343 0)
(-0.00143059 -0.00181079 0)
(-0.000420274 -0.000669949 0)
(-3.6713e-05 5.97969e-05 0)
(-0.000100531 0.000278736 0)
(-0.000761537 0.00172998 0)
(-0.00229082 0.00359356 0)
(-0.00459554 0.00555838 0)
(-0.00760617 0.00743168 0)
(-0.0112506 0.0090883 0)
(-0.0154292 0.0104513 0)
(-0.0200237 0.0114785 0)
(-0.0249065 0.0121522 0)
(-0.0299461 0.0124711 0)
(-0.0350117 0.0124457 0)
(-0.0399768 0.0120944 0)
(-0.044722 0.0114411 0)
(-0.0491368 0.0105136 0)
(-0.0531215 0.00934233 0)
(-0.0565882 0.00795961 0)
(-0.0594617 0.00639938 0)
(-0.0616799 0.00469687 0)
(-0.0631948 0.0028885 0)
(-0.0639729 0.00101188 0)
(-0.0639953 -0.0008942 0)
(-0.0632588 -0.00278984 0)
(-0.0617754 -0.00463411 0)
(-0.0595735 -0.00638534 0)
(-0.0566975 -0.00800145 0)
(-0.0532076 -0.00944054 0)
(-0.0491801 -0.0106616 0)
(-0.0447061 -0.0116256 0)
(-0.0398908 -0.0122966 0)
(-0.0348518 -0.0126429 0)
(-0.0297168 -0.0126396 0)
(-0.0246208 -0.0122698 0)
(-0.0197018 -0.0115281 0)
(-0.015097 -0.0104235 0)
(-0.0109364 -0.00898442 0)
(-0.00733668 -0.0072652 0)
(-0.00439207 -0.00535546 0)
(-0.00216469 -0.00339164 0)
(-0.000707597 -0.00157421 0)
(-8.9668e-05 -0.000214845 0)
(-0.000150794 0.000732993 0)
(-0.00104637 0.00306407 0)
(-0.00303096 0.00577545 0)
(-0.00593309 0.0085354 0)
(-0.00963764 0.0111257 0)
(-0.0140467 0.0133981 0)
(-0.0190388 0.0152573 0)
(-0.0244764 0.0166492 0)
(-0.0302144 0.0175495 0)
(-0.0361049 0.0179555 0)
(-0.0420016 0.0178805 0)
(-0.0477631 0.0173489 0)
(-0.0532559 0.016393 0)
(-0.0583568 0.0150511 0)
(-0.0629544 0.0133654 0)
(-0.0669502 0.0113813 0)
(-0.07026 0.00914657 0)
(-0.0728145 0.00671091 0)
(-0.0745598 0.00412585 0)
(-0.0754582 0.00144462 0)
(-0.0754888 -0.00127788 0)
(-0.0746474 -0.00398524 0)
(-0.0729477 -0.00661968 0)
(-0.070421 -0.00912246 0)
(-0.0671167 -0.0114344 0)
(-0.0631018 -0.0134967 0)
(-0.0584613 -0.0152519 0)
(-0.0532968 -0.0166456 0)
(-0.0477256 -0.0176278 0)
(-0.041879 -0.018155 0)
(-0.0358997 -0.0181928 0)
(-0.0299387 -0.017719 0)
(-0.0241513 -0.0167267 0)
(-0.0186922 -0.0152288 0)
(-0.0137105 -0.0132639 0)
(-0.0093432 -0.0109027 0)
(-0.00570658 -0.00825781 0)
(-0.00288808 -0.00549398 0)
(-0.000984141 -0.00284184 0)
(-0.000137967 -0.000638125 0)
(-0.00019612 0.00133041 0)
(-0.00131472 0.00475922 0)
(-0.00374263 0.00848022 0)
(-0.0072326 0.0121534 0)
(-0.0116223 0.0155449 0)
(-0.016785 0.0184903 0)
(-0.0225746 0.0208811 0)
(-0.0288328 0.0226542 0)
(-0.0353962 0.0237808 0)
(-0.0421012 0.0242583 0)
(-0.048787 0.0241038 0)
(-0.0552993 0.0233486 0)
(-0.0614926 0.0220348 0)
(-0.067233 0.020212 0)
(-0.0723996 0.0179356 0)
(-0.0768855 0.0152652 0)
(-0.0805994 0.0122637 0)
(-0.083466 0.00899672 0)
(-0.0854268 0.00553239 0)
(-0.0864408 0.00194105 0)
(-0.0864849 -0.0017048 0)
(-0.0855542 -0.00533065 0)
(-0.083663 -0.00886026 0)
(-0.0808446 -0.0122162 0)
(-0.0771519 -0.0153205 0)
(-0.0726572 -0.0180957 0)
(-0.0674518 -0.0204665 0)
(-0.0616457 -0.0223613 0)
(-0.0553661 -0.0237144 0)
(-0.0487555 -0.024469 0)
(-0.04197 -0.0245801 0)
(-0.035175 -0.0240185 0)
(-0.0285422 -0.0227748 0)
(-0.0222442 -0.0208644 0)
(-0.0164499 -0.0183341 0)
(-0.0113189 -0.0152686 0)
(-0.00699287 -0.0117995 0)
(-0.00358788 -0.00811357 0)
(-0.00124574 -0.00446349 0)
(-0.000181487 -0.00120033 0)
(-0.000237438 0.00206126 0)
(-0.0015678 0.00680084 0)
(-0.00442477 0.0116944 0)
(-0.00848987 0.0164008 0)
(-0.0135539 0.020678 0)
(-0.0194595 0.0243518 0)
(-0.0260343 0.0273058 0)
(-0.0330972 0.0294716 0)
(-0.0404661 0.0308188 0)
(-0.0479612 0.0313473 0)
(-0.0554079 0.0310795 0)
(-0.0626398 0.0300553 0)
(-0.069501 0.0283276 0)
(-0.0758486 0.0259588 0)
(-0.0815537 0.0230185 0)
(-0.0865028 0.0195817 0)
(-0.0905989 0.0157276 0)
(-0.0937621 0.0115388 0)
(-0.09593 0.00710107 0)
(-0.0970588 0.00250292 0)
(-0.0971233 -0.00216437 0)
(-0.096118 -0.00680709 0)
(-0.0940568 -0.0113294 0)
(-0.0909742 -0.0156338 0)
(-0.0869251 -0.0196222 0)
(-0.0819853 -0.0231973 0)
(-0.0762511 -0.0262641 0)
(-0.0698386 -0.0287322 0)
(-0.0628832 -0.0305189 0)
(-0.0555375 -0.0315521 0)
(-0.0479691 -0.0317745 0)
(-0.0403577 -0.0311479 0)
(-0.032891 -0.0296585 0)
(-0.0257604 -0.027322 0)
(-0.0191563 -0.0241905 0)
(-0.0132631 -0.0203595 0)
(-0.00825023 -0.0159753 0)
(-0.00426483 -0.0112417 0)
(-0.00149422 -0.00642742 0)
(-0.00022124 -0.00189257 0)
(-0.000275886 0.00291775 0)
(-0.00180893 0.00917551 0)
(-0.00508229 0.0154044 0)
(-0.00971056 0.0212657 0)
(-0.0154388 0.0265144 0)
(-0.0220782 0.0309722 0)
(-0.0294286 0.0345194 0)
(-0.037285 0.0370866 0)
(-0.0454456 0.0386456 0)
(-0.0537141 0.039201 0)
(-0.0619021 0.0387832 0)
(-0.0698318 0.0374426 0)
(-0.077338 0.0352445 0)
(-0.0842699 0.0322654 0)
(-0.0904921 0.0285905 0)
(-0.0958857 0.0243111 0)
(-0.100349 0.0195235 0)
(-0.103799 0.0143282 0)
(-0.10617 0.00882947 0)
(-0.107416 0.00313468 0)
(-0.10751 -0.00264544 0)
(-0.106445 -0.00839717 0)
(-0.104233 -0.0140042 0)
(-0.10091 -0.0193481 0)
(-0.0965322 -0.0243097 0)
(-0.091176 -0.0287703 0)
(-0.0849414 -0.0326139 0)
(-0.0779494 -0.03573 0)
(-0.0703418 -0.0380164 0)
(-0.0622801 -0.0393841 0)
(-0.0539429 -0.039761 0)
(-0.0455237 -0.0390977 0)
(-0.0372268 -0.0373729 0)
(-0.0292634 -0.0345999 0)
(-0.021847 -0.0308331 0)
(-0.015189 -0.0261746 0)
(-0.0094889 -0.0207817 0)
(-0.00492635 -0.0148712 0)
(-0.00173386 -0.00872418 0)
(-0.000258524 -0.0027083 0)
(-0.000312519 0.00389435 0)
(-0.00204202 0.0118729 0)
(-0.00572249 0.0195991 0)
(-0.0109049 0.026738 0)
(-0.0172895 0.0330454 0)
(-0.0246557 0.0383432 0)
(-0.0327747 0.0425132 0)
(-0.0414166 0.0454891 0)
(-0.0503589 0.0472485 0)
(-0.0593883 0.0478043 0)
(-0.068303 0.0471978 0)
(-0.076914 0.0454919 0)
(-0.0850478 0.0427663 0)
(-0.0925464 0.0391134 0)
(-0.0992693 0.0346349 0)
(-0.105094 0.0294395 0)
(-0.109914 0.0236417 0)
(-0.113645 0.0173603 0)
(-0.116218 0.0107184 0)
(-0.117586 0.00384284 0)
(-0.117719 -0.00313594 0)
(-0.116609 -0.0100838 0)
(-0.114267 -0.0168634 0)
(-0.110727 -0.0233349 0)
(-0.106045 -0.0293569 0)
(-0.100298 -0.0347885 0)
(-0.0935882 -0.0394913 0)
(-0.0860392 -0.0433325 0)
(-0.0777985 -0.046189 0)
(-0.0690348 -0.0479519 0)
(-0.0599376 -0.0485318 0)
(-0.0507137 -0.047865 0)
(-0.0415849 -0.0459195 0)
(-0.0327833 -0.0427025 0)
(-0.0245473 -0.0382667 0)
(-0.0171172 -0.0327176 0)
(-0.0107245 -0.0262195 0)
(-0.00558277 -0.0189994 0)
(-0.00196971 -0.0113487 0)
(-0.0002946 -0.00364379 0)
(-0.00034824 0.00498777 0)
(-0.00227084 0.0148865 0)
(-0.00635324 0.0242713 0)
(-0.0120846 0.0328111 0)
(-0.0191211 0.040265 0)
(-0.0272097 0.0464592 0)
(-0.0360924 0.0512807 0)
(-0.0455136 0.0546711 0)
(-0.0552293 0.0566178 0)
(-0.0650092 0.0571455 0)
(-0.0746376 0.0563094 0)
(-0.0839154 0.0541879 0)
(-0.0926608 0.0508773 0)
(-0.100711 0.0464875 0)
(-0.10792 0.0411381 0)
(-0.114162 0.0349564 0)
(-0.119331 0.0280754 0)
(-0.123338 0.0206329 0)
(-0.126115 0.0127708 0)
(-0.12761 0.00463552 0)
(-0.127793 -0.00362266 0)
(-0.126655 -0.0118492 0)
(-0.124203 -0.0198856 0)
(-0.12047 -0.0275701 0)
(-0.11551 -0.0347388 0)
(-0.109399 -0.0412272 0)
(-0.102239 -0.0468732 0)
(-0.0941554 -0.0515202 0)
(-0.0852995 -0.0550215 0)
(-0.0758467 -0.0572458 0)
(-0.0659962 -0.0580829 0)
(-0.0559685 -0.0574511 0)
(-0.0460029 -0.055304 0)
(-0.0363538 -0.0516383 0)
(-0.0272862 -0.0465013 0)
(-0.0190714 -0.0399975 0)
(-0.0119747 -0.0322954 0)
(-0.00624534 -0.0236295 0)
(-0.0022069 -0.0143014 0)
(-0.000330611 -0.00469821 0)
(-0.000383798 0.00619667 0)
(-0.00249882 0.0182134 0)
(-0.0069821 0.0294178 0)
(-0.0132614 0.039482 0)
(-0.0209486 0.0481704 0)
(-0.0297579 0.0553166 0)
(-0.0394011 0.0608174 0)
(-0.049596 0.0646262 0)
(-0.060077 0.0667445 0)
(-0.0705961 0.0672131 0)
(-0.0809245 0.0661044 0)
(-0.0908531 0.0635155 0)
(-0.100193 0.0595618 0)
(-0.108777 0.0543726 0)
(-0.116456 0.048087 0)
(-0.123104 0.0408515 0)
(-0.128611 0.0328183 0)
(-0.13289 0.0241443 0)
(-0.13587 0.0149903 0)
(-0.137499 0.00552193 0)
(-0.137746 -0.00409107 0)
(-0.136596 -0.013674 0)
(-0.134058 -0.0230475 0)
(-0.130159 -0.0320279 0)
(-0.124949 -0.0404282 0)
(-0.118504 -0.0480598 0)
(-0.110922 -0.0547353 0)
(-0.102329 -0.0602724 0)
(-0.0928786 -0.0644982 0)
(-0.0827516 -0.0672559 0)
(-0.0721558 -0.0684109 0)
(-0.0613251 -0.0678591 0)
(-0.0505169 -0.0655349 0)
(-0.0400086 -0.06142 0)
(-0.0300936 -0.0555516 0)
(-0.0210761 -0.0480294 0)
(-0.0132577 -0.0390226 0)
(-0.00692535 -0.0287716 0)
(-0.00245031 -0.0175882 0)
(-0.000367574 -0.00587341 0)
(-0.00041982 0.00752149 0)
(-0.00272901 0.0218545 0)
(-0.00761606 0.0350396 0)
(-0.0144463 0.0467515 0)
(-0.0227864 0.0567616 0)
(-0.0323168 0.064914 0)
(-0.0427179 0.0711192 0)
(-0.0536806 0.0753472 0)
(-0.0649168 0.0776182 0)
(-0.0761613 0.0779934 0)
(-0.0871723 0.0765667 0)
(-0.0977316 0.0734569 0)
(-0.107645 0.0688013 0)
(-0.116741 0.0627508 0)
(-0.12487 0.0554654 0)
(-0.131906 0.047112 0)
(-0.137739 0.0378622 0)
(-0.142282 0.0278917 0)
(-0.145464 0.0173803 0)
(-0.147234 0.00651171 0)
(-0.147556 -0.00452532 0)
(-0.146416 -0.0155368 0)
(-0.143816 -0.0263231 0)
(-0.139781 -0.0366788 0)
(-0.134357 -0.0463938 0)
(-0.127612 -0.0552549 0)
(-0.119642 -0.0630482 0)
(-0.110572 -0.0695635 0)
(-0.100555 -0.0745993 0)
(-0.0897736 -0.0779693 0)
(-0.0784449 -0.0795102 0)
(-0.0668149 -0.0790909 0)
(-0.0551592 -0.0766213 0)
(-0.0437792 -0.0720626 0)
(-0.032998 -0.0654366 0)
(-0.0231551 -0.0568339 0)
(-0.0145913 -0.0464209 0)
(-0.00763364 -0.0344423 0)
(-0.00270454 -0.0212204 0)
(-0.000406401 -0.00717379 0)
(-0.000456838 0.00896414 0)
(-0.00296411 0.025814 0)
(-0.00826141 0.0411416 0)
(-0.0156493 0.0546239 0)
(-0.0246473 0.066041 0)
(-0.0349005 0.0752507 0)
(-0.046057 0.0821816 0)
(-0.0577795 0.0868252 0)
(-0.0697574 0.0892255 0)
(-0.0817083 0.0894689 0)
(-0.0933782 0.087675 0)
(-0.104541 0.0839883 0)
(-0.114998 0.0785712 0)
(-0.124577 0.0715982 0)
(-0.133129 0.063252 0)
(-0.140529 0.0537204 0)
(-0.146669 0.0431949 0)
(-0.151464 0.0318697 0)
(-0.154845 0.0199424 0)
(-0.156759 0.00761432 0)
(-0.157171 -0.00490832 0)
(-0.156062 -0.0174134 0)
(-0.153431 -0.0296819 0)
(-0.149296 -0.0414877 0)
(-0.143697 -0.0525978 0)
(-0.136696 -0.062774 0)
(-0.128384 -0.0717749 0)
(-0.118877 -0.0793605 0)
(-0.108329 -0.0852974 0)
(-0.0969225 -0.0893663 0)
(-0.0848808 -0.0913704 0)
(-0.072461 -0.0911457 0)
(-0.0599565 -0.0885715 0)
(-0.0476931 -0.0835824 0)
(-0.0360255 -0.0761788 0)
(-0.0253309 -0.0664368 0)
(-0.0159921 -0.0545165 0)
(-0.0083805 -0.0406646 0)
(-0.00297391 -0.0252146 0)
(-0.000447928 -0.00860607 0)
(-0.00049533 0.0105279 0)
(-0.00320658 0.0300988 0)
(-0.00892396 0.0477322 0)
(-0.0168796 0.0631067 0)
(-0.0265429 0.076013 0)
(-0.0375214 0.0863264 0)
(-0.0494292 0.0939985 0)
(-0.0618998 0.0990477 0)
(-0.0746 0.101547 0)
(-0.0872307 0.101614 0)
(-0.0995267 0.0993996 0)
(-0.111256 0.0950772 0)
(-0.122217 0.0888377 0)
(-0.132239 0.080882 0)
(-0.141176 0.0714169 0)
(-0.148906 0.0606518 0)
(-0.155326 0.048798 0)
(-0.160355 0.0360678 0)
(-0.163925 0.0226754 0)
(-0.165986 0.00883812 0)
(-0.1665 -0.00522197 0)
(-0.165446 -0.0192763 0)
(-0.162818 -0.0330884 0)
(-0.158626 -0.0464125 0)
(-0.152902 -0.0589937 0)
(-0.1457 -0.0705685 0)
(-0.137099 -0.0808674 0)
(-0.127211 -0.0896188 0)
(-0.11618 -0.0965544 0)
(-0.104191 -0.101418 0)
(-0.0914672 -0.103973 0)
(-0.0782762 -0.104016 0)
(-0.064928 -0.10139 0)
(-0.0517732 -0.095995 0)
(-0.0391992 -0.0878025 0)
(-0.0276239 -0.0768682 0)
(-0.017476 -0.0633412 0)
(-0.00917571 -0.0474678 0)
(-0.00326253 -0.0295925 0)
(-0.000492948 -0.0101792 0)
(-0.000535748 0.0122172 0)
(-0.0034588 0.0347187 0)
(-0.00960925 0.0548229 0)
(-0.0181457 0.0722098 0)
(-0.0284834 0.0866831 0)
(-0.0401894 0.09814 0)
(-0.0528416 0.10656 0)
(-0.0660433 0.111996 0)
(-0.0794382 0.114557 0)
(-0.0927115 0.114396 0)
(-0.105588 0.1117 0)
(-0.117833 0.106679 0)
(-0.129245 0.0995547 0)
(-0.139655 0.0905571 0)
(-0.148925 0.0799184 0)
(-0.156939 0.0678706 0)
(-0.163602 0.0546443 0)
(-0.168837 0.0404688 0)
(-0.172581 0.0255734 0)
(-0.174785 0.0101894 0)
(-0.175414 -0.00544766 0)
(-0.17444 -0.0210952 0)
(-0.171853 -0.0365014 0)
(-0.167656 -0.0514028 0)
(-0.161867 -0.065524 0)
(-0.15453 -0.0785771 0)
(-0.145712 -0.0902639 0)
(-0.135513 -0.100279 0)
(-0.124066 -0.108318 0)
(-0.111552 -0.11408 0)
(-0.0981918 -0.117286 0)
(-0.084261 -0.117686 0)
(-0.0700842 -0.115076 0)
(-0.0560361 -0.109313 0)
(-0.0425385 -0.100332 0)
(-0.0300526 -0.0881613 0)
(-0.0190577 -0.0729318 0)
(-0.0100287 -0.0548864 0)
(-0.00357441 -0.0343802 0)
(-0.000542244 -0.0119041 0)
(-0.000578564 0.0140378 0)
(-0.00372321 0.0396864 0)
(-0.010323 0.0624283 0)
(-0.0194562 0.0819453 0)
(-0.0304787 0.0980572 0)
(-0.042913 0.110688 0)
(-0.0562981 0.119853 0)
(-0.0702059 0.125644 0)
(-0.0842571 0.128216 0)
(-0.0981222 0.127765 0)
(-0.111519 0.124521 0)
(-0.124211 0.118733 0)
(-0.136001 0.11066 0)
(-0.146728 0.100563 0)
(-0.156262 0.0887004 0)
(-0.164498 0.0753281 0)
(-0.171351 0.0606953 0)
(-0.176752 0.0450466 0)
(-0.180646 0.0286245 0)
(-0.182987 0.0116713 0)
(-0.183738 -0.0055668 0)
(-0.182872 -0.0228362 0)
(-0.180371 -0.0398728 0)
(-0.176226 -0.0563983 0)
(-0.170445 -0.0721188 0)
(-0.163056 -0.0867233 0)
(-0.15411 -0.0998851 0)
(-0.143688 -0.111265 0)
(-0.131914 -0.120516 0)
(-0.118953 -0.127293 0)
(-0.105023 -0.131264 0)
(-0.0904013 -0.132125 0)
(-0.075425 -0.129616 0)
(-0.0604919 -0.123542 0)
(-0.0460588 -0.113791 0)
(-0.0326335 -0.100351 0)
(-0.0207513 -0.0833293 0)
(-0.0109486 -0.0629606 0)
(-0.00391357 -0.0396086 0)
(-0.000596622 -0.013794 0)
(-0.000624318 0.0159968 0)
(-0.00400258 0.0450172 0)
(-0.0110714 0.0705662 0)
(-0.0208203 0.0923274 0)
(-0.0325386 0.11014 0)
(-0.0456995 0.123963 0)
(-0.0597997 0.133854 0)
(-0.0743782 0.139955 0)
(-0.0890328 0.142473 0)
(-0.103421 0.141657 0)
(-0.117257 0.137788 0)
(-0.130306 0.13116 0)
(-0.142379 0.122071 0)
(-0.153329 0.110818 0)
(-0.163037 0.0976882 0)
(-0.171414 0.0829591 0)
(-0.178388 0.0668981 0)
(-0.183902 0.0497636 0)
(-0.18791 0.0318081 0)
(-0.190371 0.0132819 0)
(-0.191252 -0.00556179 0)
(-0.190521 -0.0244626 0)
(-0.188153 -0.0431477 0)
(-0.18413 -0.0613277 0)
(-0.178443 -0.0786932 0)
(-0.171102 -0.0949125 0)
(-0.162136 -0.109631 0)
(-0.151608 -0.122475 0)
(-0.139618 -0.133054 0)
(-0.126314 -0.140972 0)
(-0.111906 -0.145838 0)
(-0.0966655 -0.147285 0)
(-0.080938 -0.144987 0)
(-0.0651424 -0.138681 0)
(-0.0497709 -0.128196 0)
(-0.0353811 -0.113471 0)
(-0.0225702 -0.0945777 0)
(-0.0119449 -0.071735 0)
(-0.00428426 -0.0453129 0)
(-0.000656951 -0.0158641 0)
(-0.000673677 0.0181027 0)
(-0.0043003 0.05073 0)
(-0.0118622 0.0792576 0)
(-0.0222489 0.103372 0)
(-0.0346744 0.122937 0)
(-0.0485563 0.137953 0)
(-0.063345 0.148532 0)
(-0.0785448 0.154877 0)
(-0.0937317 0.157258 0)
(-0.108553 0.155988 0)
(-0.122722 0.151405 0)
(-0.136012 0.143855 0)
(-0.148248 0.133682 0)
(-0.159298 0.12122 0)
(-0.169066 0.106785 0)
(-0.177479 0.0906783 0)
(-0.184485 0.0731829 0)
(-0.190041 0.0545682 0)
(-0.194114 0.0350936 0)
(-0.196671 0.0150134 0)
(-0.197681 -0.00541705 0)
(-0.197112 -0.0259349 0)
(-0.194931 -0.0462639 0)
(-0.191107 -0.0661079 0)
(-0.185615 -0.0851463 0)
(-0.178441 -0.10303 0)
(-0.16959 -0.119378 0)
(-0.159096 -0.133783 0)
(-0.147033 -0.145809 0)
(-0.133525 -0.155005 0)
(-0.11876 -0.160914 0)
(-0.103001 -0.163094 0)
(-0.086596 -0.161141 0)
(-0.0699803 -0.154712 0)
(-0.0536808 -0.143558 0)
(-0.0383081 -0.127554 0)
(-0.0245278 -0.106723 0)
(-0.0130274 -0.0812591 0)
(-0.0046911 -0.0515333 0)
(-0.000724217 -0.0181319 0)
(-0.000727514 0.0203661 0)
(-0.00462069 0.0568476 0)
(-0.0127049 0.0885277 0)
(-0.0237553 0.115096 0)
(-0.0368995 0.136449 0)
(-0.0514912 0.152638 0)
(-0.0669302 0.163843 0)
(-0.0826844 0.170342 0)
(-0.0983093 0.17248 0)
(-0.113445 0.170647 0)
(-0.127811 0.165246 0)
(-0.141194 0.156685 0)
(-0.153439 0.145357 0)
(-0.164439 0.131636 0)
(-0.174122 0.115868 0)
(-0.18244 0.0983768 0)
(-0.189364 0.0794592 0)
(-0.194871 0.0593922 0)
(-0.198944 0.0384378 0)
(-0.201561 0.0168495 0)
(-0.202695 -0.00512035 0)
(-0.202314 -0.0272124 0)
(-0.200377 -0.0491524 0)
(-0.19684 -0.0706436 0)
(-0.191657 -0.0913593 0)
(-0.184791 -0.110937 0)
(-0.176214 -0.128975 0)
(-0.165928 -0.145031 0)
(-0.15397 -0.158625 0)
(-0.140431 -0.169245 0)
(-0.125471 -0.176362 0)
(-0.109331 -0.17945 0)
(-0.0923543 -0.178009 0)
(-0.0749871 -0.171599 0)
(-0.0577888 -0.159875 0)
(-0.0414253 -0.142627 0)
(-0.026638 -0.119812 0)
(-0.014207 -0.0915863 0)
(-0.00513938 -0.0583148 0)
(-0.000799584 -0.0206177 0)
(-0.000787018 0.0228001 0)
(-0.00496958 0.0633984 0)
(-0.0136121 0.098407 0)
(-0.0253572 0.12752 0)
(-0.0392308 0.150674 0)
(-0.0545139 0.167989 0)
(-0.0705495 0.179726 0)
(-0.0867682 0.186256 0)
(-0.102708 0.188019 0)
(-0.118007 0.185489 0)
(-0.132397 0.179152 0)
(-0.145687 0.169482 0)
(-0.15775 0.156926 0)
(-0.168511 0.141901 0)
(-0.177931 0.124785 0)
(-0.185993 0.105919 0)
(-0.192695 0.0856135 0)
(-0.198041 0.0641481 0)
(-0.202031 0.0417826 0)
(-0.204658 0.018764 0)
(-0.205901 -0.00466442 0)
(-0.20573 -0.0282534 0)
(-0.204096 -0.0517379 0)
(-0.200942 -0.0748269 0)
(-0.196201 -0.0971947 0)
(-0.189804 -0.118472 0)
(-0.181691 -0.13824 0)
(-0.171821 -0.156026 0)
(-0.160187 -0.171306 0)
(-0.146836 -0.183504 0)
(-0.131885 -0.192014 0)
(-0.115548 -0.196212 0)
(-0.0981464 -0.195487 0)
(-0.080131 -0.18928 0)
(-0.0620888 -0.177128 0)
(-0.0447419 -0.158708 0)
(-0.0289156 -0.133891 0)
(-0.0154962 -0.102775 0)
(-0.00563544 -0.0657079 0)
(-0.000884485 -0.0233446 0)
(-0.000853838 0.0254213 0)
(-0.00535488 0.0704179 0)
(-0.0146008 0.108932 0)
(-0.0270775 0.140665 0)
(-0.0416906 0.165607 0)
(-0.0576358 0.183962 0)
(-0.074194 0.196098 0)
(-0.0907581 0.202499 0)
(-0.106852 0.203718 0)
(-0.122121 0.200334 0)
(-0.136318 0.192924 0)
(-0.149285 0.182037 0)
(-0.160933 0.16818 0)
(-0.171226 0.151814 0)
(-0.180167 0.133348 0)
(-0.187778 0.11314 0)
(-0.194091 0.0915065 0)
(-0.199137 0.0687272 0)
(-0.202941 0.0450534 0)
(-0.205513 0.020719 0)
(-0.206841 -0.00404862 0)
(-0.206897 -0.0290177 0)
(-0.205627 -0.0539398 0)
(-0.20296 -0.0785384 0)
(-0.198805 -0.102496 0)
(-0.193063 -0.125446 0)
(-0.185632 -0.146958 0)
(-0.176424 -0.166535 0)
(-0.165377 -0.18361 0)
(-0.152483 -0.197546 0)
(-0.137804 -0.20765 0)
(-0.121506 -0.21319 0)
(-0.103879 -0.213428 0)
(-0.0853634 -0.20766 0)
(-0.0665663 -0.195273 0)
(-0.0482654 -0.175804 0)
(-0.031377 -0.149004 0)
(-0.0169101 -0.114886 0)
(-0.00618718 -0.07377 0)
(-0.000980757 -0.0263394 0)
(-0.000930296 0.0282513 0)
(-0.00578756 0.077951 0)
(-0.0156944 0.120149 0)
(-0.0289472 0.154557 0)
(-0.0443073 0.181235 0)
(-0.0608708 0.200498 0)
(-0.0778503 0.212848 0)
(-0.0946027 0.218913 0)
(-0.110645 0.21938 0)
(-0.125641 0.214954 0)
(-0.139376 0.206314 0)
(-0.151737 0.194093 0)
(-0.162685 0.178865 0)
(-0.172238 0.161133 0)
(-0.180445 0.141334 0)
(-0.187374 0.119841 0)
(-0.193098 0.0969711 0)
(-0.197681 0.0729975 0)
(-0.201176 0.0481568 0)
(-0.20361 0.0226629 0)
(-0.204987 -0.00328067 0)
(-0.205281 -0.0294674 0)
(-0.204435 -0.0556744 0)
(-0.202363 -0.0816483 0)
(-0.198953 -0.107091 0)
(-0.194071 -0.131644 0)
(-0.187571 -0.154878 0)
(-0.179309 -0.17628 0)
(-0.169163 -0.195245 0)
(-0.157052 -0.211076 0)
(-0.142969 -0.222991 0)
(-0.127013 -0.230138 0)
(-0.109424 -0.231631 0)
(-0.0906137 -0.226596 0)
(-0.0711966 -0.214235 0)
(-0.0520013 -0.193903 0)
(-0.0340415 -0.165188 0)
(-0.0184675 -0.127988 0)
(-0.00680482 -0.0825665 0)
(-0.00109083 -0.0296339 0)
(-0.0010197 0.0313181 0)
(-0.00628283 0.0860562 0)
(-0.0169241 0.132115 0)
(-0.0310072 0.169222 0)
(-0.0471171 0.197534 0)
(-0.0642339 0.217511 0)
(-0.0814967 0.22983 0)
(-0.0982307 0.235292 0)
(-0.113958 0.234754 0)
(-0.128374 0.229062 0)
(-0.141316 0.219017 0)
(-0.15273 0.205343 0)
(-0.162643 0.188678 0)
(-0.171132 0.169571 0)
(-0.178308 0.148481 0)
(-0.184289 0.12579 0)
(-0.189194 0.101812 0)
(-0.193126 0.0768037 0)
(-0.196166 0.0509807 0)
(-0.198366 0.0245293 0)
(-0.199742 -0.00237839 0)
(-0.200276 -0.02957 0)
(-0.199909 -0.0568571 0)
(-0.198544 -0.0840195 0)
(-0.196045 -0.110788 0)
(-0.192245 -0.136827 0)
(-0.186952 -0.161717 0)
(-0.179962 -0.184941 0)
(-0.171079 -0.205865 0)
(-0.16014 -0.223738 0)
(-0.147049 -0.237687 0)
(-0.131818 -0.246735 0)
(-0.114609 -0.249828 0)
(-0.0957823 -0.245891 0)
(-0.0759404 -0.233896 0)
(-0.0559522 -0.212966 0)
(-0.0369325 -0.182473 0)
(-0.0201928 -0.142151 0)
(-0.00750195 -0.092173 0)
(-0.001218 -0.0332659 0)
(-0.00112679 0.0346595 0)
(-0.00686199 0.0948096 0)
(-0.0183328 0.144902 0)
(-0.0333109 0.18469 0)
(-0.0501646 0.214465 0)
(-0.0677385 0.234884 0)
(-0.0850957 0.246845 0)
(-0.10154 0.251372 0)
(-0.116616 0.24952 0)
(-0.130072 0.242308 0)
(-0.141818 0.230665 0)
(-0.151879 0.215416 0)
(-0.16036 0.197263 0)
(-0.167415 0.176794 0)
(-0.173219 0.154487 0)
(-0.177953 0.130724 0)
(-0.181782 0.105806 0)
(-0.184851 0.0799675 0)
(-0.187273 0.0533943 0)
(-0.189123 0.0262373 0)
(-0.190436 -0.00137096 0)
(-0.191202 -0.0293003 0)
(-0.191363 -0.0574061 0)
(-0.190813 -0.0855114 0)
(-0.189396 -0.113388 0)
(-0.186914 -0.140735 0)
(-0.183126 -0.167159 0)
(-0.177767 -0.192151 0)
(-0.17056 -0.215064 0)
(-0.161248 -0.235103 0)
(-0.149626 -0.25131 0)
(-0.135591 -0.262577 0)
(-0.1192 -0.267667 0)
(-0.100729 -0.265268 0)
(-0.0807374 -0.254077 0)
(-0.0601158 -0.232918 0)
(-0.0400783 -0.200878 0)
(-0.0221183 -0.157453 0)
(-0.00829723 -0.102679 0)
(-0.00136693 -0.0372817 0)
(-0.00125854 0.0383261 0)
(-0.00755505 0.104312 0)
(-0.0199787 0.158599 0)
(-0.0359277 0.20099 0)
(-0.0535013 0.231965 0)
(-0.0713892 0.252449 0)
(-0.0885815 0.263629 0)
(-0.104379 0.266808 0)
(-0.118375 0.263281 0)
(-0.130402 0.254259 0)
(-0.140466 0.240817 0)
(-0.148695 0.223879 0)
(-0.15529 0.204209 0)
(-0.160492 0.182426 0)
(-0.16455 0.159015 0)
(-0.167708 0.13435 0)
(-0.170182 0.108707 0)
(-0.172159 0.0822919 0)
(-0.173784 0.0552507 0)
(-0.175159 0.0276917 0)
(-0.176334 -0.000299657 0)
(-0.177313 -0.0286431 0)
(-0.178039 -0.0572462 0)
(-0.178403 -0.0859855 0)
(-0.178236 -0.114685 0)
(-0.177308 -0.143095 0)
(-0.175338 -0.170861 0)
(-0.171997 -0.197503 0)
(-0.166926 -0.22238 0)
(-0.159759 -0.244668 0)
(-0.150167 -0.26334 0)
(-0.137905 -0.277158 0)
(-0.122885 -0.284689 0)
(-0.105257 -0.284356 0)
(-0.0854962 -0.274522 0)
(-0.0644812 -0.253634 0)
(-0.0435134 -0.220396 0)
(-0.0242871 -0.173975 0)
(-0.0092168 -0.114191 0)
(-0.00154434 -0.0417397 0)
(-0.00142531 0.0423881 0)
(-0.00840476 0.114696 0)
(-0.0219406 0.173319 0)
(-0.0389446 0.218144 0)
(-0.0571817 0.249931 0)
(-0.0751693 0.269971 0)
(-0.0918383 0.27983 0)
(-0.106518 0.281159 0)
(-0.118893 0.275537 0)
(-0.128915 0.264391 0)
(-0.136722 0.248951 0)
(-0.142567 0.230233 0)
(-0.146766 0.209054 0)
(-0.149655 0.186049 0)
(-0.151564 0.161699 0)
(-0.152799 0.136352 0)
(-0.153629 0.110254 0)
(-0.154277 0.0835672 0)
(-0.154921 0.0563918 0)
(-0.155685 0.0287862 0)
(-0.156639 0.000782507 0)
(-0.157797 -0.0275953 0)
(-0.159113 -0.0563144 0)
(-0.160476 -0.0853135 0)
(-0.16171 -0.114481 0)
(-0.162566 -0.143629 0)
(-0.162726 -0.172466 0)
(-0.161804 -0.200558 0)
(-0.15936 -0.227296 0)
(-0.154916 -0.251856 0)
(-0.148 -0.273159 0)
(-0.138199 -0.289854 0)
(-0.125239 -0.300311 0)
(-0.109087 -0.302657 0)
(-0.0900759 -0.294866 0)
(-0.0690204 -0.274911 0)
(-0.047279 -0.24099 0)
(-0.0267583 -0.191804 0)
(-0.0102982 -0.12684 0)
(-0.00176028 -0.0467148 0)
(-0.00164298 0.0469428 0)
(-0.0094728 0.12614 0)
(-0.0243252 0.189196 0)
(-0.0424682 0.236156 0)
(-0.0612525 0.268194 0)
(-0.079016 0.287111 0)
(-0.0946637 0.294972 0)
(-0.107608 0.293853 0)
(-0.117679 0.285668 0)
(-0.125 0.272077 0)
(-0.129878 0.25446 0)
(-0.132718 0.233914 0)
(-0.133964 0.21129 0)
(-0.134055 0.187218 0)
(-0.133401 0.162155 0)
(-0.132367 0.13641 0)
(-0.131266 0.110182 0)
(-0.130357 0.083582 0)
(-0.129839 0.0566567 0)
(-0.129859 0.0294086 0)
(-0.130502 0.00181247 0)
(-0.131797 -0.0261685 0)
(-0.133707 -0.0545656 0)
(-0.136131 -0.0833865 0)
(-0.138892 -0.112593 0)
(-0.141734 -0.142075 0)
(-0.144316 -0.171617 0)
(-0.146208 -0.200862 0)
(-0.146895 -0.22926 0)
(-0.145793 -0.256019 0)
(-0.142278 -0.280048 0)
(-0.135742 -0.299911 0)
(-0.125681 -0.313794 0)
(-0.111817 -0.319516 0)
(-0.0942571 -0.314601 0)
(-0.0736726 -0.29644 0)
(-0.0514202 -0.262568 0)
(-0.029612 -0.211025 0)
(-0.0115964 -0.140791 0)
(-0.00203024 -0.0523069 0)
(-0.00193662 0.0521287 0)
(-0.0108497 0.138881 0)
(-0.0272755 0.206389 0)
(-0.0466197 0.254986 0)
(-0.0657286 0.286481 0)
(-0.0827764 0.303384 0)
(-0.0967099 0.308411 0)
(-0.107107 0.304158 0)
(-0.114024 0.292913 0)
(-0.117816 0.276577 0)
(-0.119001 0.256657 0)
(-0.118161 0.234309 0)
(-0.115874 0.210383 0)
(-0.112682 0.18548 0)
(-0.109066 0.160006 0)
(-0.105441 0.134214 0)
(-0.102153 0.108241 0)
(-0.0994818 0.0821385 0)
(-0.0976448 0.0558931 0)
(-0.0967995 0.0294488 0)
(-0.0970452 0.00272069 0)
(-0.0984227 -0.0243894 0)
(-0.100911 -0.0519786 0)
(-0.104423 -0.0801264 0)
(-0.108795 -0.108874 0)
(-0.113779 -0.1382 0)
(-0.119028 -0.167985 0)
(-0.124089 -0.19797 0)
(-0.128395 -0.2277 0)
(-0.131266 -0.25646 0)
(-0.131931 -0.283196 0)
(-0.129573 -0.306437 0)
(-0.123415 -0.324222 0)
(-0.112862 -0.334073 0)
(-0.0976924 -0.333019 0)
(-0.0783143 -0.317755 0)
(-0.0559777 -0.284949 0)
(-0.0329565 -0.231716 0)
(-0.0131935 -0.156253 0)