/*--------------------------------*- C++ -*----------------------------------*\
| =========                 |                                                 |
| \\      /  F ield         | OpenFOAM: The Open Source CFD Toolbox           |
|  \\    /   O peration     | Version:  2312                                  |
|   \\  /    A nd           | Website:  www.openfoam.com                      |
|    \\/     M anipulation  |                                                 |
\*---------------------------------------------------------------------------*/
FoamFile
{
    version     2.0;
    format      ascii;
    arch        "LSB;label=32;scalar=64";
    class       volScalarField;
    location    "0.7";
    object      Ux;
}
// * * * * * * * * * * * * * * * * * * * * * * * * * * * * * * * * * * * * * //

dimensions      [0 1 -1 0 0 0 0];

internalField   nonuniform List<scalar> 
1600
(
6.05218e-05
0.000155976
0.000156964
6.62287e-06
-0.000303453
-0.000756861
-0.00132912
-0.00199326
-0.00272203
-0.00348915
-0.00426986
-0.0050413
-0.0057826
-0.00647498
-0.00710182
-0.00764861
-0.00810303
-0.00845492
-0.00869636
-0.00882171
-0.00882768
-0.00871341
-0.00848058
-0.0081335
-0.00767918
-0.0071274
-0.00649074
-0.00578453
-0.00502684
-0.00423826
-0.00344173
-0.00266219
-0.00192617
-0.00126119
-0.00069482
-0.000253324
4.07879e-05
0.000174377
0.000160408
6.02868e-05
5.86791e-05
7.25316e-05
-0.000178575
-0.0007731
-0.00172554
-0.00300934
-0.0045759
-0.00636581
-0.00831527
-0.01036
-0.0124378
-0.0144896
-0.016461
-0.0183023
-0.0199692
-0.0214229
-0.0226304
-0.0235644
-0.0242039
-0.0245339
-0.0245458
-0.024238
-0.0236152
-0.0226896
-0.0214803
-0.0200137
-0.0183235
-0.0164504
-0.014442
-0.0123519
-0.0102391
-0.00816715
-0.00620212
-0.00441078
-0.00285758
-0.00160028
-0.000683372
-0.000126995
9.20156e-05
6.17665e-05
1.14532e-05
-0.000172008
-0.000804401
-0.00193188
-0.00355534
-0.0056388
-0.00811744
-0.0109097
-0.0139261
-0.0170745
-0.0202642
-0.0234083
-0.0264254
-0.0292411
-0.0317884
-0.0340087
-0.0358516
-0.037276
-0.0382499
-0.0387507
-0.0387658
-0.0382928
-0.0373396
-0.0359247
-0.0340775
-0.0318384
-0.0292583
-0.0263986
-0.0233304
-0.0201339
-0.0168964
-0.0137108
-0.010673
-0.0078786
-0.00541802
-0.00337081
-0.00179666
-0.000723498
-0.000138958
1.76719e-05
-4.543e-05
-0.000464587
-0.00153607
-0.0032432
-0.00555688
-0.0084261
-0.0117698
-0.0154881
-0.0194711
-0.0236054
-0.0277781
-0.0318804
-0.0358097
-0.0394717
-0.0427812
-0.0456633
-0.0480539
-0.0499003
-0.0511616
-0.0518093
-0.0518272
-0.0512125
-0.0499756
-0.0481403
-0.0457446
-0.0428399
-0.0394911
-0.0357763
-0.0317856
-0.0276198
-0.0233887
-0.0192084
-0.0151979
-0.0114751
-0.00815128
-0.00532457
-0.00307038
-0.00143059
-0.000420274
-3.6713e-05
-0.000100531
-0.000761537
-0.00229082
-0.00459554
-0.00760617
-0.0112506
-0.0154292
-0.0200237
-0.0249065
-0.0299461
-0.0350117
-0.0399768
-0.044722
-0.0491368
-0.0531215
-0.0565882
-0.0594617
-0.0616799
-0.0631948
-0.0639729
-0.0639953
-0.0632588
-0.0617754
-0.0595735
-0.0566975
-0.0532076
-0.0491801
-0.0447061
-0.0398908
-0.0348518
-0.0297168
-0.0246208
-0.0197018
-0.015097
-0.0109364
-0.00733668
-0.00439207
-0.00216469
-0.000707597
-8.9668e-05
-0.000150794
-0.00104637
-0.00303096
-0.00593309
-0.00963764
-0.0140467
-0.0190388
-0.0244764
-0.0302144
-0.0361049
-0.0420016
-0.0477631
-0.0532559
-0.0583568
-0.0629544
-0.0669502
-0.07026
-0.0728145
-0.0745598
-0.0754582
-0.0754888
-0.0746474
-0.0729477
-0.070421
-0.0671167
-0.0631018
-0.0584613
-0.0532968
-0.0477256
-0.041879
-0.0358997
-0.0299387
-0.0241513
-0.0186922
-0.0137105
-0.0093432
-0.00570658
-0.00288808
-0.000984141
-0.000137967
-0.00019612
-0.00131472
-0.00374263
-0.0072326
-0.0116223
-0.016785
-0.0225746
-0.0288328
-0.0353962
-0.0421012
-0.048787
-0.0552993
-0.0614926
-0.067233
-0.0723996
-0.0768855
-0.0805994
-0.083466
-0.0854268
-0.0864408
-0.0864849
-0.0855542
-0.083663
-0.0808446
-0.0771519
-0.0726572
-0.0674518
-0.0616457
-0.0553661
-0.0487555
-0.04197
-0.035175
-0.0285422
-0.0222442
-0.0164499
-0.0113189
-0.00699287
-0.00358788
-0.00124574
-0.000181487
-0.000237438
-0.0015678
-0.00442477
-0.00848987
-0.0135539
-0.0194595
-0.0260343
-0.0330972
-0.0404661
-0.0479612
-0.0554079
-0.0626398
-0.069501
-0.0758486
-0.0815537
-0.0865028
-0.0905989
-0.0937621
-0.09593
-0.0970588
-0.0971233
-0.096118
-0.0940568
-0.0909742
-0.0869251
-0.0819853
-0.0762511
-0.0698386
-0.0628832
-0.0555375
-0.0479691
-0.0403577
-0.032891
-0.0257604
-0.0191563
-0.0132631
-0.00825023
-0.00426483
-0.00149422
-0.00022124
-0.000275886
-0.00180893
-0.00508229
-0.00971056
-0.0154388
-0.0220782
-0.0294286
-0.037285
-0.0454456
-0.0537141
-0.0619021
-0.0698318
-0.077338
-0.0842699
-0.0904921
-0.0958857
-0.100349
-0.103799
-0.10617
-0.107416
-0.10751
-0.106445
-0.104233
-0.10091
-0.0965322
-0.091176
-0.0849414
-0.0779494
-0.0703418
-0.0622801
-0.0539429
-0.0455237
-0.0372268
-0.0292634
-0.021847
-0.015189
-0.0094889
-0.00492635
-0.00173386
-0.000258524
-0.000312519
-0.00204202
-0.00572249
-0.0109049
-0.0172895
-0.0246557
-0.0327747
-0.0414166
-0.0503589
-0.0593883
-0.068303
-0.076914
-0.0850478
-0.0925464
-0.0992693
-0.105094
-0.109914
-0.113645
-0.116218
-0.117586
-0.117719
-0.116609
-0.114267
-0.110727
-0.106045
-0.100298
-0.0935882
-0.0860392
-0.0777985
-0.0690348
-0.0599376
-0.0507137
-0.0415849
-0.0327833
-0.0245473
-0.0171172
-0.0107245
-0.00558277
-0.00196971
-0.0002946
-0.00034824
-0.00227084
-0.00635324
-0.0120846
-0.0191211
-0.0272097
-0.0360924
-0.0455136
-0.0552293
-0.0650092
-0.0746376
-0.0839154
-0.0926608
-0.100711
-0.10792
-0.114162
-0.119331
-0.123338
-0.126115
-0.12761
-0.127793
-0.126655
-0.124203
-0.12047
-0.11551
-0.109399
-0.102239
-0.0941554
-0.0852995
-0.0758467
-0.0659962
-0.0559685
-0.0460029
-0.0363538
-0.0272862
-0.0190714
-0.0119747
-0.00624534
-0.0022069
-0.000330611
-0.000383798
-0.00249882
-0.0069821
-0.0132614
-0.0209486
-0.0297579
-0.0394011
-0.049596
-0.060077
-0.0705961
-0.0809245
-0.0908531
-0.100193
-0.108777
-0.116456
-0.123104
-0.128611
-0.13289
-0.13587
-0.137499
-0.137746
-0.136596
-0.134058
-0.130159
-0.124949
-0.118504
-0.110922
-0.102329
-0.0928786
-0.0827516
-0.0721558
-0.0613251
-0.0505169
-0.0400086
-0.0300936
-0.0210761
-0.0132577
-0.00692535
-0.00245031
-0.000367574
-0.00041982
-0.00272901
-0.00761606
-0.0144463
-0.0227864
-0.0323168
-0.0427179
-0.0536806
-0.0649168
-0.0761613
-0.0871723
-0.0977316
-0.107645
-0.116741
-0.12487
-0.131906
-0.137739
-0.142282
-0.145464
-0.147234
-0.147556
-0.146416
-0.143816
-0.139781
-0.134357
-0.127612
-0.119642
-0.110572
-0.100555
-0.0897736
-0.0784449
-0.0668149
-0.0551592
-0.0437792
-0.032998
-0.0231551
-0.0145913
-0.00763364
-0.00270454
-0.000406401
-0.000456838
-0.00296411
-0.00826141
-0.0156493
-0.0246473
-0.0349005
-0.046057
-0.0577795
-0.0697574
-0.0817083
-0.0933782
-0.104541
-0.114998
-0.124577
-0.133129
-0.140529
-0.146669
-0.151464
-0.154845
-0.156759
-0.157171
-0.156062
-0.153431
-0.149296
-0.143697
-0.136696
-0.128384
-0.118877
-0.108329
-0.0969225
-0.0848808
-0.072461
-0.0599565
-0.0476931
-0.0360255
-0.0253309
-0.0159921
-0.0083805
-0.00297391
-0.000447928
-0.00049533
-0.00320658
-0.00892396
-0.0168796
-0.0265429
-0.0375214
-0.0494292
-0.0618998
-0.0746
-0.0872307
-0.0995267
-0.111256
-0.122217
-0.132239
-0.141176
-0.148906
-0.155326
-0.160355
-0.163925
-0.165986
-0.1665
-0.165446
-0.162818
-0.158626
-0.152902
-0.1457
-0.137099
-0.127211
-0.11618
-0.104191
-0.0914672
-0.0782762
-0.064928
-0.0517732
-0.0391992
-0.0276239
-0.017476
-0.00917571
-0.00326253
-0.000492948
-0.000535748
-0.0034588
-0.00960925
-0.0181457
-0.0284834
-0.0401894
-0.0528416
-0.0660433
-0.0794382
-0.0927115
-0.105588
-0.117833
-0.129245
-0.139655
-0.148925
-0.156939
-0.163602
-0.168837
-0.172581
-0.174785
-0.175414
-0.17444
-0.171853
-0.167656
-0.161867
-0.15453
-0.145712
-0.135513
-0.124066
-0.111552
-0.0981918
-0.084261
-0.0700842
-0.0560361
-0.0425385
-0.0300526
-0.0190577
-0.0100287
-0.00357441
-0.000542244
-0.000578564
-0.00372321
-0.010323
-0.0194562
-0.0304787
-0.042913
-0.0562981
-0.0702059
-0.0842571
-0.0981222
-0.111519
-0.124211
-0.136001
-0.146728
-0.156262
-0.164498
-0.171351
-0.176752
-0.180646
-0.182987
-0.183738
-0.182872
-0.180371
-0.176226
-0.170445
-0.163056
-0.15411
-0.143688
-0.131914
-0.118953
-0.105023
-0.0904013
-0.075425
-0.0604919
-0.0460588
-0.0326335
-0.0207513
-0.0109486
-0.00391357
-0.000596622
-0.000624318
-0.00400258
-0.0110714
-0.0208203
-0.0325386
-0.0456995
-0.0597997
-0.0743782
-0.0890328
-0.103421
-0.117257
-0.130306
-0.142379
-0.153329
-0.163037
-0.171414
-0.178388
-0.183902
-0.18791
-0.190371
-0.191252
-0.190521
-0.188153
-0.18413
-0.178443
-0.171102
-0.162136
-0.151608
-0.139618
-0.126314
-0.111906
-0.0966655
-0.080938
-0.0651424
-0.0497709
-0.0353811
-0.0225702
-0.0119449
-0.00428426
-0.000656951
-0.000673677
-0.0043003
-0.0118622
-0.0222489
-0.0346744
-0.0485563
-0.063345
-0.0785448
-0.0937317
-0.108553
-0.122722
-0.136012
-0.148248
-0.159298
-0.169066
-0.177479
-0.184485
-0.190041
-0.194114
-0.196671
-0.197681
-0.197112
-0.194931
-0.191107
-0.185615
-0.178441
-0.16959
-0.159096
-0.147033
-0.133525
-0.11876
-0.103001
-0.086596
-0.0699803
-0.0536808
-0.0383081
-0.0245278
-0.0130274
-0.0046911
-0.000724217
-0.000727514
-0.00462069
-0.0127049
-0.0237553
-0.0368995
-0.0514912
-0.0669302
-0.0826844
-0.0983093
-0.113445
-0.127811
-0.141194
-0.153439
-0.164439
-0.174122
-0.18244
-0.189364
-0.194871
-0.198944
-0.201561
-0.202695
-0.202314
-0.200377
-0.19684
-0.191657
-0.184791
-0.176214
-0.165928
-0.15397
-0.140431
-0.125471
-0.109331
-0.0923543
-0.0749871
-0.0577888
-0.0414253
-0.026638
-0.014207
-0.00513938
-0.000799584
-0.000787018
-0.00496958
-0.0136121
-0.0253572
-0.0392308
-0.0545139
-0.0705495
-0.0867682
-0.102708
-0.118007
-0.132397
-0.145687
-0.15775
-0.168511
-0.177931
-0.185993
-0.192695
-0.198041
-0.202031
-0.204658
-0.205901
-0.20573
-0.204096
-0.200942
-0.196201
-0.189804
-0.181691
-0.171821
-0.160187
-0.146836
-0.131885
-0.115548
-0.0981464
-0.080131
-0.0620888
-0.0447419
-0.0289156
-0.0154962
-0.00563544
-0.000884485
-0.000853838
-0.00535488
-0.0146008
-0.0270775
-0.0416906
-0.0576358
-0.074194
-0.0907581
-0.106852
-0.122121
-0.136318
-0.149285
-0.160933
-0.171226
-0.180167
-0.187778
-0.194091
-0.199137
-0.202941
-0.205513
-0.206841
-0.206897
-0.205627
-0.20296
-0.198805
-0.193063
-0.185632
-0.176424
-0.165377
-0.152483
-0.137804
-0.121506
-0.103879
-0.0853634
-0.0665663
-0.0482654
-0.031377
-0.0169101
-0.00618718
-0.000980757
-0.000930296
-0.00578756
-0.0156944
-0.0289472
-0.0443073
-0.0608708
-0.0778503
-0.0946027
-0.110645
-0.125641
-0.139376
-0.151737
-0.162685
-0.172238
-0.180445
-0.187374
-0.193098
-0.197681
-0.201176
-0.20361
-0.204987
-0.205281
-0.204435
-0.202363
-0.198953
-0.194071
-0.187571
-0.179309
-0.169163
-0.157052
-0.142969
-0.127013
-0.109424
-0.0906137
-0.0711966
-0.0520013
-0.0340415
-0.0184675
-0.00680482
-0.00109083
-0.0010197
-0.00628283
-0.0169241
-0.0310072
-0.0471171
-0.0642339
-0.0814967
-0.0982307
-0.113958
-0.128374
-0.141316
-0.15273
-0.162643
-0.171132
-0.178308
-0.184289
-0.189194
-0.193126
-0.196166
-0.198366
-0.199742
-0.200276
-0.199909
-0.198544
-0.196045
-0.192245
-0.186952
-0.179962
-0.171079
-0.16014
-0.147049
-0.131818
-0.114609
-0.0957823
-0.0759404
-0.0559522
-0.0369325
-0.0201928
-0.00750195
-0.001218
-0.00112679
-0.00686199
-0.0183328
-0.0333109
-0.0501646
-0.0677385
-0.0850957
-0.10154
-0.116616
-0.130072
-0.141818
-0.151879
-0.16036
-0.167415
-0.173219
-0.177953
-0.181782
-0.184851
-0.187273
-0.189123
-0.190436
-0.191202
-0.191363
-0.190813
-0.189396
-0.186914
-0.183126
-0.177767
-0.17056
-0.161248
-0.149626
-0.135591
-0.1192
-0.100729
-0.0807374
-0.0601158
-0.0400783
-0.0221183
-0.00829723
-0.00136693
-0.00125854
-0.00755505
-0.0199787
-0.0359277
-0.0535013
-0.0713892
-0.0885815
-0.104379
-0.118375
-0.130402
-0.140466
-0.148695
-0.15529
-0.160492
-0.16455
-0.167708
-0.170182
-0.172159
-0.173784
-0.175159
-0.176334
-0.177313
-0.178039
-0.178403
-0.178236
-0.177308
-0.175338
-0.171997
-0.166926
-0.159759
-0.150167
-0.137905
-0.122885
-0.105257
-0.0854962
-0.0644812
-0.0435134
-0.0242871
-0.0092168
-0.00154434
-0.00142531
-0.00840476
-0.0219406
-0.0389446
-0.0571817
-0.0751693
-0.0918383
-0.106518
-0.118893
-0.128915
-0.136722
-0.142567
-0.146766
-0.149655
-0.151564
-0.152799
-0.153629
-0.154277
-0.154921
-0.155685
-0.156639
-0.157797
-0.159113
-0.160476
-0.16171
-0.162566
-0.162726
-0.161804
-0.15936
-0.154916
-0.148
-0.138199
-0.125239
-0.109087
-0.0900759
-0.0690204
-0.047279
-0.0267583
-0.0102982
-0.00176028
-0.00164298
-0.0094728
-0.0243252
-0.0424682
-0.0612525
-0.079016
-0.0946637
-0.107608
-0.117679
-0.125
-0.129878
-0.132718
-0.133964
-0.134055
-0.133401
-0.132367
-0.131266
-0.130357
-0.129839
-0.129859
-0.130502
-0.131797
-0.133707
-0.136131
-0.138892
-0.141734
-0.144316
-0.146208
-0.146895
-0.145793
-0.142278
-0.135742
-0.125681
-0.111817
-0.0942571
-0.0736726
-0.0514202
-0.029612
-0.0115964
-0.00203024
-0.00193662
-0.0108497
-0.0272755
-0.0466197
-0.0657286
-0.0827764
-0.0967099
-0.107107
-0.114024
-0.117816
-0.119001
-0.118161
-0.115874
-0.112682
-0.109066
-0.105441
-0.102153
-0.0994818
-0.0976448
-0.0967995
-0.0970452
-0.0984227
-0.100911
-0.104423
-0.108795
-0.113779
-0.119028
-0.124089
-0.128395
-0.131266
-0.131931
-0.129573
-0.123415
-0.112862
-0.0976924
-0.0783143
-0.0559777
-0.0329565
-0.0131935
-0.00237908
-0.0023474
-0.0126708
-0.0309809
-0.0515208
-0.070545
-0.0861304
-0.0973871
-0.104185
-0.106907
-0.106211
-0.102867
-0.097645
-0.0912582
-0.0843361
-0.0774144
-0.0709371
-0.0652643
-0.0606816
-0.0574086
-0.0556058
-0.0553791
-0.0567807
-0.059807
-0.0643925
-0.0704001
-0.0776072
-0.0856882
-0.0941957
-0.102541
-0.10998
-0.115618
-0.11843
-0.117342
-0.111364
-0.0998249
-0.0827027
-0.0609654
-0.0369347
-0.015215
-0.00284814
-0.0029453
-0.0151414
-0.0356823
-0.0572506
-0.075462
-0.0884563
-0.0957117
-0.097567
-0.0948562
-0.088611
-0.0798745
-0.0696025
-0.0586216
-0.0476197
-0.0371544
-0.0276694
-0.0195125
-0.0129528
-0.00819463
-0.00538877
-0.00463908
-0.00600559
-0.00950322
-0.0150959
-0.022686
-0.0320976
-0.0430547
-0.0551533
-0.0678294
-0.0803266
-0.0916708
-0.100667
-0.10594
-0.106054
-0.0997543
-0.0863707
-0.0663166
-0.0417232
-0.0178538
-0.00350864
-0.00385309
-0.0185753
-0.0416599
-0.0637441
-0.0798811
-0.0886014
-0.0900711
-0.0853267
-0.0757823
-0.0628893
-0.0479586
-0.0320946
-0.0161868
-0.000930509
0.0131417
0.0256271
0.0362237
0.0447052
0.0509028
0.0546903
0.0559757
0.0546965
0.0508194
0.0443459
0.0353222
0.0238567
0.010145
-0.00549616
-0.0225853
-0.0404238
-0.0580406
-0.0741451
-0.0871143
-0.0950559
-0.09602
-0.0884353
-0.0717649
-0.0475079
-0.021407
-0.00448639
-0.00528932
-0.0234441
-0.0491602
-0.0705574
-0.0824991
-0.0845009
-0.0778702
-0.0645958
-0.0467645
-0.026235
-0.00452019
0.0172133
0.0380983
0.0575075
0.0749952
0.0902484
0.103048
0.113239
0.120708
0.125369
0.127152
0.125998
0.121857
0.114695
0.104497
0.0912876
0.0751532
0.0562792
0.0350001
0.0118682
-0.0122613
-0.0361334
-0.0580048
-0.0756079
-0.0862615
-0.0872544
-0.0765867
-0.0543867
-0.0263183
-0.00600546
-0.00763788
-0.03041
-0.058154
-0.0763534
-0.0806694
-0.0725636
-0.0550315
-0.0312088
-0.00383276
0.0249574
0.053604
0.0810264
0.106503
0.129571
0.149941
0.167441
0.181971
0.19347
0.201899
0.207224
0.209404
0.208392
0.204126
0.196534
0.185542
0.171078
0.153102
0.131631
0.106792
0.0788953
0.0485434
0.0167697
-0.0147862
-0.0437044
-0.0667045
-0.0798273
-0.0790677
-0.0620849
-0.0331876
-0.00845472
-0.0115153
-0.0401951
-0.0676329
-0.0778082
-0.0692715
-0.0467403
-0.0153474
0.020673
0.0581947
0.0951034
0.130067
0.162299
0.191374
0.217094
0.239394
0.258282
0.273801
0.286001
0.294925
0.300596
0.303009
0.302131
0.297896
0.290202
0.278916
0.263878
0.244914
0.221856
0.194583
0.163086
0.127574
0.0886383
0.0474973
0.00631687
-0.03144
-0.0607966
-0.0754282
-0.0691851
-0.0425774
-0.0124368
-0.0176309
-0.0527433
-0.073719
-0.0673871
-0.0388414
0.00273423
0.0501969
0.0988026
0.145673
0.189236
0.22875
0.263959
0.294874
0.321639
0.344449
0.363509
0.379008
0.391103
0.399913
0.405514
0.407938
0.407168
0.403137
0.395727
0.384761
0.370008
0.35118
0.327938
0.299911
0.266736
0.228134
0.184056
0.134938
0.0821175
0.0284518
-0.0209105
-0.0577687
-0.0711901
-0.0540307
-0.0185606
-0.0256741
-0.064238
-0.0651039
-0.0291754
0.0271749
0.0906962
0.153793
0.212642
0.265652
0.312444
0.353221
0.388429
0.418579
0.444163
0.465618
0.483316
0.49756
0.508585
0.516565
0.521616
0.523793
0.523096
0.519465
0.512777
0.50284
0.489382
0.472048
0.45038
0.423817
0.391686
0.353233
0.307685
0.254429
0.193379
0.125697
0.0550563
-0.0104688
-0.0561866
-0.0629139
-0.0261558
-0.029223
-0.058303
-0.0132825
0.0679737
0.155669
0.237771
0.310196
0.372234
0.42468
0.468799
0.50585
0.53693
0.562944
0.58462
0.602531
0.617127
0.628755
0.637675
0.644077
0.648085
0.649764
0.649125
0.646119
0.640637
0.632501
0.621451
0.607129
0.589057
0.566603
0.538945
0.505027
0.463517
0.412806
0.35113
0.277038
0.190556
0.0953689
0.00382248
-0.0518376
-0.0278781
0.0108431
0.0250453
0.148316
0.278984
0.384825
0.468031
0.533527
0.585245
0.626434
0.659593
0.686541
0.708586
0.726681
0.741522
0.753629
0.763386
0.771081
0.776925
0.781069
0.783612
0.784609
0.78407
0.781964
0.778214
0.77269
0.765197
0.755462
0.743107
0.727613
0.708267
0.684077
0.653659
0.615048
0.565476
0.501207
0.417568
0.308684
0.171224
0.0382229
0.0165522
0.302075
0.400777
0.563265
0.681048
0.751356
0.796431
0.827698
0.850357
0.867364
0.880515
0.890906
0.899233
0.905959
0.911404
0.915793
0.919291
0.922017
0.924058
0.925475
0.926308
0.926579
0.926292
0.925438
0.923984
0.921881
0.919052
0.915387
0.910733
0.904871
0.897494
0.888149
0.876158
0.860445
0.839233
0.809528
0.766
0.696964
0.578696
0.411356
0.306789
)
;

boundaryField
{
    movingWall
    {
        type            calculated;
        value           uniform 1;
    }
    fixedWalls
    {
        type            calculated;
        value           uniform 0;
    }
    frontAndBack
    {
        type            empty;
    }
}


// ************************************************************************* //
