/*--------------------------------*- C++ -*----------------------------------*\
| =========                 |                                                 |
| \\      /  F ield         | OpenFOAM: The Open Source CFD Toolbox           |
|  \\    /   O peration     | Version:  2312                                  |
|   \\  /    A nd           | Website:  www.openfoam.com                      |
|    \\/     M anipulation  |                                                 |
\*---------------------------------------------------------------------------*/
FoamFile
{
    version     2.0;
    format      ascii;
    arch        "LSB;label=32;scalar=64";
    class       volScalarField;
    location    "0.7";
    object      Uy;
}
// * * * * * * * * * * * * * * * * * * * * * * * * * * * * * * * * * * * * * //

dimensions      [0 1 -1 0 0 0 0];

internalField   nonuniform List<scalar> 
1600
(
-6.05565e-05
-5.7165e-05
-7.04921e-06
5.24514e-05
0.000107994
0.000154865
0.000191701
0.000218547
0.000235977
0.000244738
0.000245623
0.000239416
0.000226878
0.000208744
0.000185723
0.000158506
0.000127775
9.42108e-05
5.85021e-05
2.13575e-05
-1.64884e-05
-5.42688e-05
-9.11808e-05
-0.000126385
-0.00015901
-0.000188156
-0.00021291
-0.000232359
-0.000245602
-0.000251773
-0.000250057
-0.000239715
-0.000220111
-0.000190764
-0.000151472
-0.000102657
-4.62028e-05
1.26563e-05
6.02176e-05
6.0051e-05
-0.000157054
-6.95152e-05
0.000182402
0.000477124
0.000761302
0.00100978
0.00121123
0.00136177
0.0014613
0.00151171
0.00151599
0.00147769
0.00140069
0.00128904
0.00114688
0.000978413
0.000787895
0.000579662
0.000358148
0.000127916
-0.000106315
-0.000339661
-0.000567057
-0.000783283
-0.00098299
-0.00116076
-0.00131118
-0.00142895
-0.00150902
-0.00154673
-0.00153799
-0.00147951
-0.00136913
-0.0012063
-0.000992905
-0.000735004
-0.000446157
-0.000153537
8.84043e-05
0.000160799
-0.000162874
0.000178522
0.000814257
0.00153698
0.00223963
0.00286272
0.00337463
0.00376097
0.00401758
0.00414641
0.00415315
0.00404579
0.00383378
0.00352742
0.00313764
0.00267574
0.00215336
0.00158248
0.000975371
0.000344713
-0.000296421
-0.000934529
-0.0015557
-0.00214566
-0.00268991
-0.00317387
-0.00358313
-0.00390374
-0.00412262
-0.00422801
-0.00421002
-0.00406138
-0.00377839
-0.00336233
-0.00282163
-0.00217564
-0.00146101
-0.000741559
-0.000126555
0.000180128
-2.20191e-05
0.000768375
0.00194226
0.00322802
0.00446997
0.00557319
0.00648264
0.00717023
0.00762531
0.00784859
0.00784819
0.00763714
0.00723172
0.00665033
0.00591284
0.00504019
0.00405413
0.00297714
0.0018324
0.000643857
-0.000563821
-0.0017652
-0.00293416
-0.00404399
-0.0050677
-0.00597826
-0.00674915
-0.00735491
-0.00777191
-0.00797926
-0.00795993
-0.00770213
-0.00720114
-0.00646174
-0.00550182
-0.00435786
-0.00309343
-0.00181079
-0.000669949
5.97969e-05
0.000278736
0.00172998
0.00359356
0.00555838
0.00743168
0.0090883
0.0104513
0.0114785
0.0121522
0.0124711
0.0124457
0.0120944
0.0114411
0.0105136
0.00934233
0.00795961
0.00639938
0.00469687
0.0028885
0.00101188
-0.0008942
-0.00278984
-0.00463411
-0.00638534
-0.00800145
-0.00944054
-0.0106616
-0.0116256
-0.0122966
-0.0126429
-0.0126396
-0.0122698
-0.0115281
-0.0104235
-0.00898442
-0.0072652
-0.00535546
-0.00339164
-0.00157421
-0.000214845
0.000732993
0.00306407
0.00577545
0.0085354
0.0111257
0.0133981
0.0152573
0.0166492
0.0175495
0.0179555
0.0178805
0.0173489
0.016393
0.0150511
0.0133654
0.0113813
0.00914657
0.00671091
0.00412585
0.00144462
-0.00127788
-0.00398524
-0.00661968
-0.00912246
-0.0114344
-0.0134967
-0.0152519
-0.0166456
-0.0176278
-0.018155
-0.0181928
-0.017719
-0.0167267
-0.0152288
-0.0132639
-0.0109027
-0.00825781
-0.00549398
-0.00284184
-0.000638125
0.00133041
0.00475922
0.00848022
0.0121534
0.0155449
0.0184903
0.0208811
0.0226542
0.0237808
0.0242583
0.0241038
0.0233486
0.0220348
0.020212
0.0179356
0.0152652
0.0122637
0.00899672
0.00553239
0.00194105
-0.0017048
-0.00533065
-0.00886026
-0.0122162
-0.0153205
-0.0180957
-0.0204665
-0.0223613
-0.0237144
-0.024469
-0.0245801
-0.0240185
-0.0227748
-0.0208644
-0.0183341
-0.0152686
-0.0117995
-0.00811357
-0.00446349
-0.00120033
0.00206126
0.00680084
0.0116944
0.0164008
0.020678
0.0243518
0.0273058
0.0294716
0.0308188
0.0313473
0.0310795
0.0300553
0.0283276
0.0259588
0.0230185
0.0195817
0.0157276
0.0115388
0.00710107
0.00250292
-0.00216437
-0.00680709
-0.0113294
-0.0156338
-0.0196222
-0.0231973
-0.0262641
-0.0287322
-0.0305189
-0.0315521
-0.0317745
-0.0311479
-0.0296585
-0.027322
-0.0241905
-0.0203595
-0.0159753
-0.0112417
-0.00642742
-0.00189257
0.00291775
0.00917551
0.0154044
0.0212657
0.0265144
0.0309722
0.0345194
0.0370866
0.0386456
0.039201
0.0387832
0.0374426
0.0352445
0.0322654
0.0285905
0.0243111
0.0195235
0.0143282
0.00882947
0.00313468
-0.00264544
-0.00839717
-0.0140042
-0.0193481
-0.0243097
-0.0287703
-0.0326139
-0.03573
-0.0380164
-0.0393841
-0.039761
-0.0390977
-0.0373729
-0.0345999
-0.0308331
-0.0261746
-0.0207817
-0.0148712
-0.00872418
-0.0027083
0.00389435
0.0118729
0.0195991
0.026738
0.0330454
0.0383432
0.0425132
0.0454891
0.0472485
0.0478043
0.0471978
0.0454919
0.0427663
0.0391134
0.0346349
0.0294395
0.0236417
0.0173603
0.0107184
0.00384284
-0.00313594
-0.0100838
-0.0168634
-0.0233349
-0.0293569
-0.0347885
-0.0394913
-0.0433325
-0.046189
-0.0479519
-0.0485318
-0.047865
-0.0459195
-0.0427025
-0.0382667
-0.0327176
-0.0262195
-0.0189994
-0.0113487
-0.00364379
0.00498777
0.0148865
0.0242713
0.0328111
0.040265
0.0464592
0.0512807
0.0546711
0.0566178
0.0571455
0.0563094
0.0541879
0.0508773
0.0464875
0.0411381
0.0349564
0.0280754
0.0206329
0.0127708
0.00463552
-0.00362266
-0.0118492
-0.0198856
-0.0275701
-0.0347388
-0.0412272
-0.0468732
-0.0515202
-0.0550215
-0.0572458
-0.0580829
-0.0574511
-0.055304
-0.0516383
-0.0465013
-0.0399975
-0.0322954
-0.0236295
-0.0143014
-0.00469821
0.00619667
0.0182134
0.0294178
0.039482
0.0481704
0.0553166
0.0608174
0.0646262
0.0667445
0.0672131
0.0661044
0.0635155
0.0595618
0.0543726
0.048087
0.0408515
0.0328183
0.0241443
0.0149903
0.00552193
-0.00409107
-0.013674
-0.0230475
-0.0320279
-0.0404282
-0.0480598
-0.0547353
-0.0602724
-0.0644982
-0.0672559
-0.0684109
-0.0678591
-0.0655349
-0.06142
-0.0555516
-0.0480294
-0.0390226
-0.0287716
-0.0175882
-0.00587341
0.00752149
0.0218545
0.0350396
0.0467515
0.0567616
0.064914
0.0711192
0.0753472
0.0776182
0.0779934
0.0765667
0.0734569
0.0688013
0.0627508
0.0554654
0.047112
0.0378622
0.0278917
0.0173803
0.00651171
-0.00452532
-0.0155368
-0.0263231
-0.0366788
-0.0463938
-0.0552549
-0.0630482
-0.0695635
-0.0745993
-0.0779693
-0.0795102
-0.0790909
-0.0766213
-0.0720626
-0.0654366
-0.0568339
-0.0464209
-0.0344423
-0.0212204
-0.00717379
0.00896414
0.025814
0.0411416
0.0546239
0.066041
0.0752507
0.0821816
0.0868252
0.0892255
0.0894689
0.087675
0.0839883
0.0785712
0.0715982
0.063252
0.0537204
0.0431949
0.0318697
0.0199424
0.00761432
-0.00490832
-0.0174134
-0.0296819
-0.0414877
-0.0525978
-0.062774
-0.0717749
-0.0793605
-0.0852974
-0.0893663
-0.0913704
-0.0911457
-0.0885715
-0.0835824
-0.0761788
-0.0664368
-0.0545165
-0.0406646
-0.0252146
-0.00860607
0.0105279
0.0300988
0.0477322
0.0631067
0.076013
0.0863264
0.0939985
0.0990477
0.101547
0.101614
0.0993996
0.0950772
0.0888377
0.080882
0.0714169
0.0606518
0.048798
0.0360678
0.0226754
0.00883812
-0.00522197
-0.0192763
-0.0330884
-0.0464125
-0.0589937
-0.0705685
-0.0808674
-0.0896188
-0.0965544
-0.101418
-0.103973
-0.104016
-0.10139
-0.095995
-0.0878025
-0.0768682
-0.0633412
-0.0474678
-0.0295925
-0.0101792
0.0122172
0.0347187
0.0548229
0.0722098
0.0866831
0.09814
0.10656
0.111996
0.114557
0.114396
0.1117
0.106679
0.0995547
0.0905571
0.0799184
0.0678706
0.0546443
0.0404688
0.0255734
0.0101894
-0.00544766
-0.0210952
-0.0365014
-0.0514028
-0.065524
-0.0785771
-0.0902639
-0.100279
-0.108318
-0.11408
-0.117286
-0.117686
-0.115076
-0.109313
-0.100332
-0.0881613
-0.0729318
-0.0548864
-0.0343802
-0.0119041
0.0140378
0.0396864
0.0624283
0.0819453
0.0980572
0.110688
0.119853
0.125644
0.128216
0.127765
0.124521
0.118733
0.11066
0.100563
0.0887004
0.0753281
0.0606953
0.0450466
0.0286245
0.0116713
-0.0055668
-0.0228362
-0.0398728
-0.0563983
-0.0721188
-0.0867233
-0.0998851
-0.111265
-0.120516
-0.127293
-0.131264
-0.132125
-0.129616
-0.123542
-0.113791
-0.100351
-0.0833293
-0.0629606
-0.0396086
-0.013794
0.0159968
0.0450172
0.0705662
0.0923274
0.11014
0.123963
0.133854
0.139955
0.142473
0.141657
0.137788
0.13116
0.122071
0.110818
0.0976882
0.0829591
0.0668981
0.0497636
0.0318081
0.0132819
-0.00556179
-0.0244626
-0.0431477
-0.0613277
-0.0786932
-0.0949125
-0.109631
-0.122475
-0.133054
-0.140972
-0.145838
-0.147285
-0.144987
-0.138681
-0.128196
-0.113471
-0.0945777
-0.071735
-0.0453129
-0.0158641
0.0181027
0.05073
0.0792576
0.103372
0.122937
0.137953
0.148532
0.154877
0.157258
0.155988
0.151405
0.143855
0.133682
0.12122
0.106785
0.0906783
0.0731829
0.0545682
0.0350936
0.0150134
-0.00541705
-0.0259349
-0.0462639
-0.0661079
-0.0851463
-0.10303
-0.119378
-0.133783
-0.145809
-0.155005
-0.160914
-0.163094
-0.161141
-0.154712
-0.143558
-0.127554
-0.106723
-0.0812591
-0.0515333
-0.0181319
0.0203661
0.0568476
0.0885277
0.115096
0.136449
0.152638
0.163843
0.170342
0.17248
0.170647
0.165246
0.156685
0.145357
0.131636
0.115868
0.0983768
0.0794592
0.0593922
0.0384378
0.0168495
-0.00512035
-0.0272124
-0.0491524
-0.0706436
-0.0913593
-0.110937
-0.128975
-0.145031
-0.158625
-0.169245
-0.176362
-0.17945
-0.178009
-0.171599
-0.159875
-0.142627
-0.119812
-0.0915863
-0.0583148
-0.0206177
0.0228001
0.0633984
0.098407
0.12752
0.150674
0.167989
0.179726
0.186256
0.188019
0.185489
0.179152
0.169482
0.156926
0.141901
0.124785
0.105919
0.0856135
0.0641481
0.0417826
0.018764
-0.00466442
-0.0282534
-0.0517379
-0.0748269
-0.0971947
-0.118472
-0.13824
-0.156026
-0.171306
-0.183504
-0.192014
-0.196212
-0.195487
-0.18928
-0.177128
-0.158708
-0.133891
-0.102775
-0.0657079
-0.0233446
0.0254213
0.0704179
0.108932
0.140665
0.165607
0.183962
0.196098
0.202499
0.203718
0.200334
0.192924
0.182037
0.16818
0.151814
0.133348
0.11314
0.0915065
0.0687272
0.0450534
0.020719
-0.00404862
-0.0290177
-0.0539398
-0.0785384
-0.102496
-0.125446
-0.146958
-0.166535
-0.18361
-0.197546
-0.20765
-0.21319
-0.213428
-0.20766
-0.195273
-0.175804
-0.149004
-0.114886
-0.07377
-0.0263394
0.0282513
0.077951
0.120149
0.154557
0.181235
0.200498
0.212848
0.218913
0.21938
0.214954
0.206314
0.194093
0.178865
0.161133
0.141334
0.119841
0.0969711
0.0729975
0.0481568
0.0226629
-0.00328067
-0.0294674
-0.0556744
-0.0816483
-0.107091
-0.131644
-0.154878
-0.17628
-0.195245
-0.211076
-0.222991
-0.230138
-0.231631
-0.226596
-0.214235
-0.193903
-0.165188
-0.127988
-0.0825665
-0.0296339
0.0313181
0.0860562
0.132115
0.169222
0.197534
0.217511
0.22983
0.235292
0.234754
0.229062
0.219017
0.205343
0.188678
0.169571
0.148481
0.12579
0.101812
0.0768037
0.0509807
0.0245293
-0.00237839
-0.02957
-0.0568571
-0.0840195
-0.110788
-0.136827
-0.161717
-0.184941
-0.205865
-0.223738
-0.237687
-0.246735
-0.249828
-0.245891
-0.233896
-0.212966
-0.182473
-0.142151
-0.092173
-0.0332659
0.0346595
0.0948096
0.144902
0.18469
0.214465
0.234884
0.246845
0.251372
0.24952
0.242308
0.230665
0.215416
0.197263
0.176794
0.154487
0.130724
0.105806
0.0799675
0.0533943
0.0262373
-0.00137096
-0.0293003
-0.0574061
-0.0855114
-0.113388
-0.140735
-0.167159
-0.192151
-0.215064
-0.235103
-0.25131
-0.262577
-0.267667
-0.265268
-0.254077
-0.232918
-0.200878
-0.157453
-0.102679
-0.0372817
0.0383261
0.104312
0.158599
0.20099
0.231965
0.252449
0.263629
0.266808
0.263281
0.254259
0.240817
0.223879
0.204209
0.182426
0.159015
0.13435
0.108707
0.0822919
0.0552507
0.0276917
-0.000299657
-0.0286431
-0.0572462
-0.0859855
-0.114685
-0.143095
-0.170861
-0.197503
-0.22238
-0.244668
-0.26334
-0.277158
-0.284689
-0.284356
-0.274522
-0.253634
-0.220396
-0.173975
-0.114191
-0.0417397
0.0423881
0.114696
0.173319
0.218144
0.249931
0.269971
0.27983
0.281159
0.275537
0.264391
0.248951
0.230233
0.209054
0.186049
0.161699
0.136352
0.110254
0.0835672
0.0563918
0.0287862
0.000782507
-0.0275953
-0.0563144
-0.0853135
-0.114481
-0.143629
-0.172466
-0.200558
-0.227296
-0.251856
-0.273159
-0.289854
-0.300311
-0.302657
-0.294866
-0.274911
-0.24099
-0.191804
-0.12684
-0.0467148
0.0469428
0.12614
0.189196
0.236156
0.268194
0.287111
0.294972
0.293853
0.285668
0.272077
0.25446
0.233914
0.21129
0.187218
0.162155
0.13641
0.110182
0.083582
0.0566567
0.0294086
0.00181247
-0.0261685
-0.0545656
-0.0833865
-0.112593
-0.142075
-0.171617
-0.200862
-0.22926
-0.256019
-0.280048
-0.299911
-0.313794
-0.319516
-0.314601
-0.29644
-0.262568
-0.211025
-0.140791
-0.0523069
0.0521287
0.138881
0.206389
0.254986
0.286481
0.303384
0.308411
0.304158
0.292913
0.276577
0.256657
0.234309
0.210383
0.18548
0.160006
0.134214
0.108241
0.0821385
0.0558931
0.0294488
0.00272069
-0.0243894
-0.0519786
-0.0801264
-0.108874
-0.1382
-0.167985
-0.19797
-0.2277
-0.25646
-0.283196
-0.306437
-0.324222
-0.334073
-0.333019
-0.317755
-0.284949
-0.231716
-0.156253
-0.0586536
0.0581463
0.153236
0.225065
0.274509
0.304347
0.318087
0.319283
0.311144
0.296355
0.277037
0.25479
0.230775
0.205802
0.180404
0.15491
0.129495
0.104221
0.0790731
0.0539742
0.0288095
0.00343683
-0.0223006
-0.0485627
-0.0754993
-0.103233
-0.131836
-0.161299
-0.191485
-0.22207
-0.252467
-0.281722
-0.308405
-0.330482
-0.345221
-0.349149
-0.338157
-0.307807
-0.253925
-0.173494
-0.0659504
0.0652939
0.169622
0.245368
0.294426
0.321075
0.330208
0.326432
0.313644
0.294912
0.272515
0.248073
0.222687
0.197065
0.17163
0.146603
0.122062
0.0979853
0.0742831
0.0508184
0.0274209
0.00389765
-0.0199589
-0.0443636
-0.0695292
-0.0956544
-0.122905
-0.151388
-0.181106
-0.2119
-0.243363
-0.274721
-0.304682
-0.331255
-0.351557
-0.361667
-0.356603
-0.330571
-0.277617
-0.192853
-0.0744864
0.0740278
0.188574
0.267338
0.314118
0.335511
0.338298
0.328341
0.310241
0.287362
0.262028
0.235762
0.209509
0.183811
0.158933
0.134958
0.111853
0.0895061
0.0677572
0.0464127
0.0252568
0.00405683
-0.017433
-0.0394684
-0.0623119
-0.0862257
-0.11146
-0.138233
-0.166696
-0.196878
-0.228601
-0.261349
-0.294094
-0.325044
-0.351352
-0.368796
-0.371556
-0.352258
-0.302575
-0.214754
-0.084705
0.0850689
0.21074
0.290728
0.332387
0.34584
0.340322
0.323076
0.29929
0.272428
0.244659
0.217259
0.190904
0.165895
0.1423
0.120047
0.0989828
0.0789107
0.0596079
0.0408375
0.0223521
0.00389565
-0.0147984
-0.0340086
-0.0540271
-0.0751595
-0.097721
-0.122025
-0.148362
-0.176953
-0.20788
-0.24096
-0.275554
-0.31027
-0.342564
-0.368211
-0.380766
-0.371206
-0.328188
-0.239664
-0.0973097
0.0995746
0.236769
0.314618
0.347024
0.34927
0.333533
0.308314
0.279047
0.248945
0.219749
0.192295
0.166882
0.143515
0.122038
0.102221
0.0838052
0.0665212
0.0501028
0.0342881
0.0188182
0.0034331
-0.0121337
-0.0281612
-0.044947
-0.0628132
-0.0821102
-0.103217
-0.126531
-0.152448
-0.18131
-0.213302
-0.248282
-0.285469
-0.322961
-0.357005
-0.381036
-0.384652
-0.353024
-0.267959
-0.113431
0.119368
0.266939
0.336674
0.354178
0.341728
0.314474
0.28156
0.247989
0.216205
0.187195
0.16118
0.138005
0.117357
0.098871
0.0821858
0.0669622
0.0528903
0.0396871
0.0270907
0.0148532
0.00273249
-0.00951587
-0.0221479
-0.0354404
-0.0497012
-0.0652791
-0.0825742
-0.102044
-0.124205
-0.149609
-0.178793
-0.212153
-0.249678
-0.290466
-0.331861
-0.368062
-0.388175
-0.374066
-0.299457
-0.134827
0.147268
0.300136
0.351773
0.347546
0.317762
0.279366
0.240747
0.205433
0.174495
0.147885
0.12512
0.1056
0.0887447
0.0740416
0.0610542
0.0494156
0.0388161
0.02899
0.0197029
0.0107412
0.00190155
-0.00701886
-0.0162319
-0.0259693
-0.0364943
-0.0481157
-0.0612041
-0.0762109
-0.0936881
-0.114304
-0.138844
-0.168166
-0.203053
-0.243845
-0.289622
-0.336575
-0.37509
-0.385385
-0.332318
-0.164156
0.187847
0.331408
0.349393
0.317297
0.270805
0.225031
0.185276
0.152429
0.125758
0.104134
0.0864831
0.0719085
0.0597028
0.0493187
0.0403335
0.0324173
0.0253081
0.0187916
0.0126866
0.006833
0.00108163
-0.0047142
-0.0107075
-0.0170671
-0.0239881
-0.0317059
-0.0405142
-0.050788
-0.0630159
-0.0778408
-0.0961091
-0.118918
-0.147624
-0.183725
-0.228372
-0.280957
-0.33581
-0.375836
-0.360558
-0.205626
0.244812
0.345093
0.310261
0.25061
0.195527
0.151434
0.118049
0.0931341
0.0744154
0.0601232
0.0489893
0.0401269
0.0329174
0.026925
0.0218367
0.0174223
0.0135072
0.00995449
0.0066521
0.00350349
0.000420574
-0.00268241
-0.00589471
-0.00931532
-0.0130605
-0.0172737
-0.0221391
-0.0279016
-0.0348967
-0.0435951
-0.0546716
-0.0691067
-0.0883288
-0.114378
-0.149966
-0.197951
-0.259144
-0.326544
-0.367207
-0.261532
0.285005
0.299014
0.213904
0.145896
0.100367
0.0706165
0.0512225
0.0383425
0.0294959
0.0231825
0.0185061
0.0149216
0.0120879
0.00978399
0.00786141
0.00621652
0.00477396
0.00347655
0.00227876
0.00114221
3.24458e-05
-0.00108377
-0.00224097
-0.00347769
-0.00483972
-0.00638464
-0.00818832
-0.0103551
-0.0130339
-0.0164464
-0.0209349
-0.0270493
-0.035705
-0.0484658
-0.0680012
-0.0986356
-0.14667
-0.219417
-0.309648
-0.294945
0.146414
0.127365
0.0753776
0.0430495
0.025344
0.0156016
0.0101543
0.00700329
0.00507866
0.00382712
0.00296284
0.00233365
0.00185474
0.00147626
0.00116726
0.000907429
0.000682671
0.000482698
0.000299552
0.000126683
-4.17002e-05
-0.000211134
-0.000387374
-0.000576892
-0.0007875
-0.00102924
-0.00131573
-0.0016664
-0.00211045
-0.00269411
-0.0034951
-0.00465215
-0.00642775
-0.00934113
-0.0144361
-0.0237713
-0.0412977
-0.0742116
-0.127995
-0.148218
)
;

boundaryField
{
    movingWall
    {
        type            calculated;
        value           uniform 0;
    }
    fixedWalls
    {
        type            calculated;
        value           uniform 0;
    }
    frontAndBack
    {
        type            empty;
    }
}


// ************************************************************************* //
