/*--------------------------------*- C++ -*----------------------------------*\
| =========                 |                                                 |
| \\      /  F ield         | OpenFOAM: The Open Source CFD Toolbox           |
|  \\    /   O peration     | Version:  2312                                  |
|   \\  /    A nd           | Website:  www.openfoam.com                      |
|    \\/     M anipulation  |                                                 |
\*---------------------------------------------------------------------------*/
FoamFile
{
    version     2.0;
    format      ascii;
    arch        "LSB;label=32;scalar=64";
    class       volScalarField;
    location    "0";
    object      error;
}
// * * * * * * * * * * * * * * * * * * * * * * * * * * * * * * * * * * * * * //

dimensions      [0 0 0 0 0 0 0];

internalField   nonuniform List<scalar> 
3200
(
0.0341294
0.0341903
0.0342815
0.0344105
0.0345849
0.0348106
0.0350905
0.0354207
0.0357923
0.03622
0.0344699
0.0345278
0.0346136
0.034728
0.0348736
0.0350521
0.0352673
0.0355358
0.035906
0.0365107
0.0347706
0.0348265
0.034903
0.0349979
0.0351069
0.0352238
0.0353376
0.0354345
0.0354904
0.0354604
0.0350459
0.0350992
0.0351674
0.0352453
0.0353247
0.0353936
0.0354322
0.035411
0.0352826
0.0349667
0.0352949
0.035347
0.0354109
0.0354811
0.0355494
0.0356038
0.0356282
0.0356009
0.0354966
0.0352872
0.0355177
0.0355706
0.0356356
0.0357085
0.0357838
0.0358537
0.03591
0.0359444
0.0359525
0.0359375
0.0357128
0.0357685
0.0358388
0.0359218
0.036015
0.0361155
0.0362219
0.0363344
0.0364586
0.0366062
0.0358779
0.035937
0.0360142
0.0361094
0.0362231
0.0363557
0.0365097
0.0366892
0.0369017
0.0371581
0.0360101
0.0360718
0.0361548
0.0362599
0.0363894
0.0365462
0.0367342
0.0369586
0.0372265
0.0375455
0.036107
0.0361692
0.0362545
0.0363643
0.0365015
0.0366696
0.0368737
0.0371187
0.0374107
0.037756
0.0298111
0.030338
0.0303797
0.0301922
0.0299051
0.0295649
0.0291989
0.0288322
0.0284919
0.0282137
0.0308683
0.0306674
0.0305452
0.0303161
0.0300091
0.0296474
0.0292473
0.0288242
0.0283918
0.0279628
0.0311539
0.0309744
0.0307951
0.0305431
0.0302223
0.0298388
0.0293959
0.0288984
0.0283524
0.0277715
0.0314339
0.0312979
0.0311222
0.0308788
0.0305674
0.0301834
0.0297169
0.0291558
0.0284873
0.0277045
0.0317581
0.0316625
0.0315199
0.0313176
0.0310544
0.0307199
0.0302913
0.0297372
0.0290143
0.0280729
0.0321287
0.0320712
0.0319801
0.0318485
0.0316777
0.0314602
0.0311732
0.0307757
0.0301983
0.0293354
0.0325358
0.0325133
0.0324777
0.0324342
0.0323905
0.0323535
0.0323235
0.0322883
0.0322065
0.0319788
0.0329604
0.0329707
0.0329868
0.0330251
0.0331059
0.0332578
0.033523
0.03397
0.0346994
0.035843
0.0333789
0.0334147
0.0334739
0.0335699
0.0337307
0.0339922
0.0344137
0.0351124
0.0363399
0.0386786
0.0337648
0.0338203
0.0339039
0.0340298
0.0342132
0.0344703
0.0348069
0.035197
0.0355186
0.0354211
0.0266591
0.0271703
0.0273416
0.027271
0.0270216
0.0266713
0.0262903
0.0259232
0.0255891
0.0252875
0.0250075
0.0247347
0.0244558
0.0241612
0.023845
0.0235049
0.0231415
0.0227576
0.0223578
0.0219489
0.0266067
0.0270348
0.0271724
0.0270729
0.026825
0.0265128
0.0261971
0.0259065
0.0256439
0.0253979
0.0251529
0.0248952
0.0246153
0.0243082
0.0239727
0.02361
0.0232238
0.0228188
0.0224008
0.0219754
0.027028
0.0272797
0.0272481
0.0270173
0.0267279
0.0264625
0.0262501
0.0260782
0.0259173
0.025739
0.0255244
0.0252647
0.0249589
0.024611
0.0242273
0.0238152
0.023382
0.0229349
0.0224806
0.0220234
0.0279225
0.0278193
0.0274944
0.0271011
0.0268145
0.0266736
0.026629
0.0266039
0.0265351
0.0263887
0.0261557
0.0258429
0.0254644
0.025036
0.0245722
0.0240855
0.0235863
0.0230826
0.0225809
0.0220835
0.0295164
0.02885
0.0281176
0.0276337
0.0274891
0.027571
0.0277044
0.0277558
0.0276646
0.0274256
0.0270621
0.0266062
0.0260883
0.025533
0.0249589
0.0243793
0.0238033
0.0232373
0.0226851
0.0221462
0.0319552
0.0306155
0.0295477
0.0292543
0.0294454
0.0297352
0.0298592
0.0297265
0.0293578
0.0288168
0.0281693
0.0274673
0.0267466
0.0260299
0.0253298
0.0246531
0.0240024
0.0233784
0.0227807
0.0222044
0.0352363
0.0335433
0.0327177
0.03305
0.0335131
0.0335855
0.0331755
0.0324012
0.031421
0.0303613
0.0293026
0.0282884
0.027338
0.0264556
0.0256378
0.0248774
0.0241663
0.0234969
0.0228629
0.0222556
0.0389621
0.0385442
0.0391671
0.0399983
0.0398158
0.0386994
0.0370483
0.0352141
0.033413
0.0317503
0.0302628
0.0289512
0.0277984
0.026781
0.0258739
0.025054
0.0243011
0.0235994
0.0229371
0.0223025
0.0417388
0.0468434
0.0494452
0.0489036
0.0464838
0.0433904
0.0402746
0.0374228
0.034929
0.0327968
0.030992
0.0294668
0.0281716
0.0270595
0.0260891
0.0252248
0.0244381
0.0237067
0.0230151
0.0223496
0.0368643
0.0448727
0.0461972
0.0446422
0.042579
0.040375
0.0381872
0.0361167
0.034216
0.0325036
0.0309767
0.0296203
0.0284131
0.0273321
0.0263545
0.0254596
0.0246297
0.0238506
0.0231119
0.0224017
0.0343767
0.0336611
0.0308224
0.0287882
0.0282076
0.0283081
0.0285464
0.0286913
0.028673
0.0284881
0.0281569
0.0277065
0.0271643
0.0265549
0.0259
0.0252175
0.0245218
0.023824
0.0231313
0.0224454
0.0379539
0.0347191
0.0323097
0.0306529
0.0297807
0.0294072
0.0292423
0.0291045
0.0289054
0.0286122
0.0282212
0.0277422
0.0271905
0.0265826
0.0259343
0.0252596
0.0245701
0.0238752
0.0231815
0.0224931
0.0377895
0.0351518
0.0332066
0.031806
0.0308832
0.0302996
0.0299004
0.0295652
0.0292198
0.0288264
0.0283709
0.0278532
0.02728
0.0266615
0.0260089
0.0253326
0.024642
0.0239446
0.0232466
0.0225523
0.0365941
0.0350375
0.0336562
0.0325328
0.0316695
0.0310149
0.0304921
0.0300301
0.0295765
0.0290995
0.0285835
0.0280238
0.0274226
0.0267859
0.0261211
0.0254361
0.0247382
0.0240337
0.0233279
0.0226251
0.0356763
0.0348502
0.0339193
0.0330416
0.0322722
0.031611
0.0310288
0.0304884
0.0299575
0.0294137
0.0288439
0.0282428
0.0276106
0.0269506
0.0262682
0.0255691
0.0248591
0.0241436
0.0234269
0.022713
0.0352976
0.0348341
0.0341811
0.033479
0.0327932
0.0321469
0.0315361
0.0309457
0.0303586
0.0297609
0.0291437
0.0285029
0.0278382
0.0271518
0.0264477
0.0257303
0.0250044
0.0242743
0.023544
0.022817
0.0353819
0.0350509
0.0345353
0.0339348
0.0333036
0.0326694
0.0320404
0.0314138
0.0307824
0.0301391
0.0294791
0.0288
0.0281019
0.0273869
0.0266579
0.0259189
0.0251738
0.0244262
0.0236796
0.0229374
0.0358093
0.0354856
0.0350137
0.0344552
0.0338465
0.0332123
0.0325642
0.0319053
0.0312347
0.03055
0.0298494
0.0291324
0.0284
0.027654
0.0268976
0.026134
0.0253666
0.0245988
0.0238336
0.0230742
0.0364754
0.0361026
0.0356194
0.03506
0.0344465
0.0337973
0.0331236
0.032431
0.0317217
0.0309963
0.0302554
0.0294999
0.0287315
0.0279525
0.027166
0.026375
0.0255827
0.0247921
0.0240059
0.0232273
0.0373111
0.036867
0.036342
0.0357545
0.0351154
0.0344377
0.0337304
0.0329997
0.0322493
0.0314817
0.0306989
0.0299031
0.0290965
0.0282821
0.0274627
0.0266415
0.0258215
0.0250055
0.0241961
0.0233963
0.038271
0.0377516
0.0371706
0.0365383
0.035859
0.0351411
0.0343921
0.0336176
0.0328222
0.0320093
0.0311819
0.030343
0.0294956
0.0286428
0.0277877
0.0269334
0.026083
0.025239
0.0244039
0.0235807
0.039333
0.03874
0.0380969
0.0374101
0.0366801
0.0359128
0.0351142
0.0342899
0.0334445
0.0325822
0.0317065
0.0308212
0.0299295
0.029035
0.0281409
0.0272505
0.0263666
0.025492
0.0246287
0.0237799
0.040488
0.0398255
0.0391179
0.0383698
0.0375811
0.0367564
0.0359012
0.0350207
0.0341198
0.0332031
0.0322748
0.0313389
0.0303991
0.0294593
0.0285228
0.0275929
0.0266725
0.0257643
0.0248702
0.0239933
0.0417386
0.0410085
0.0402337
0.0394191
0.0385649
0.0376757
0.0367569
0.0358137
0.0348514
0.0338749
0.0328888
0.0318976
0.0309054
0.0299161
0.0289334
0.0279604
0.0270002
0.0260553
0.0251277
0.0242204
0.0430916
0.0422939
0.0414486
0.0405621
0.0396358
0.038675
0.0376854
0.0366726
0.0356424
0.0346001
0.0335507
0.032499
0.0314495
0.0304062
0.029373
0.0283532
0.0273497
0.0263649
0.0254008
0.0244602
0.044559
0.0436904
0.0427695
0.0418049
0.0407994
0.0397594
0.0386913
0.0376016
0.0364963
0.0353814
0.0342625
0.0331445
0.0320323
0.0309302
0.029842
0.0287711
0.0277205
0.0266924
0.0256888
0.0247122
0.0461558
0.0452101
0.0442064
0.0431557
0.0420627
0.0409349
0.0397799
0.0386049
0.0374167
0.0362219
0.0350264
0.0338358
0.0326551
0.0314887
0.0303406
0.0292143
0.0281125
0.0270375
0.025991
0.0249754
0.0478994
0.0468672
0.0457711
0.0446246
0.0434342
0.0422088
0.0409572
0.0396876
0.0384077
0.0371246
0.0358449
0.0345746
0.0333188
0.0320822
0.030869
0.0296823
0.0285251
0.0273994
0.0263067
0.0252492
0.0498097
0.0486784
0.0474778
0.0462236
0.0449238
0.0435893
0.0422299
0.0408551
0.0394734
0.0380928
0.0367203
0.0353624
0.0340244
0.0327114
0.0314271
0.0301751
0.0289579
0.0277774
0.0266348
0.0255322
0.0519141
0.0506636
0.0493433
0.047967
0.0465441
0.0450869
0.0436069
0.0421147
0.0406199
0.0391313
0.0376565
0.0362023
0.0347745
0.0333779
0.0320165
0.0306936
0.0294115
0.0281718
0.0269757
0.0258249
0.0370705
0.0370101
0.0369053
0.0367211
0.0363972
0.0358432
0.0349299
0.0334494
0.03131
0.0303791
0.0380211
0.0380549
0.0381849
0.0384774
0.0389953
0.0397227
0.04039
0.0402297
0.0389136
0.0379377
0.0388424
0.0389412
0.0391563
0.0394646
0.0397663
0.0398168
0.0392336
0.0379032
0.0370861
0.0376353
0.0394606
0.0395342
0.0396394
0.0396571
0.0393941
0.0386371
0.0373649
0.0360997
0.0357236
0.0362608
0.0398723
0.0398557
0.0397555
0.0394417
0.0387795
0.0377474
0.0365805
0.0357161
0.0353597
0.0353685
0.0401616
0.0400522
0.0397785
0.0392663
0.0384907
0.0375572
0.0366927
0.0360582
0.0355612
0.0351082
0.0404388
0.0402706
0.039907
0.0393425
0.0386306
0.0378986
0.0372669
0.036718
0.0360861
0.0353434
0.0407935
0.0406069
0.0402294
0.0397037
0.0391127
0.038553
0.0380546
0.0375281
0.0368141
0.035925
0.0412808
0.0411054
0.0407604
0.0403091
0.039832
0.0393864
0.0389528
0.0384272
0.0376789
0.0367357
0.0419248
0.0417764
0.0414824
0.041107
0.040715
0.0403343
0.0399254
0.039395
0.0386426
0.0376979
0.0427308
0.0426133
0.0423707
0.0420576
0.0417215
0.041372
0.0409671
0.0404305
0.0396875
0.0387649
0.0436943
0.043605
0.0434052
0.0431376
0.0428339
0.0424946
0.0420823
0.0415383
0.0408084
0.0399155
0.0448076
0.0447408
0.0445732
0.0443358
0.0440483
0.0437069
0.0432813
0.042728
0.0420092
0.0411441
0.046065
0.0460144
0.0458689
0.0456495
0.0453675
0.0450173
0.0445752
0.0440106
0.0432988
0.042456
0.0474641
0.0474242
0.0472924
0.0470824
0.0467993
0.046437
0.0459777
0.0454003
0.0446902
0.0438621
0.0490067
0.048973
0.0488489
0.0486426
0.0483548
0.0479793
0.047503
0.0469123
0.0461994
0.0453779
0.0506983
0.0506678
0.0505475
0.0503417
0.0500477
0.0496595
0.0491676
0.0485631
0.0478436
0.0470216
0.0525482
0.0525189
0.0524004
0.0521936
0.0518936
0.0514943
0.0509884
0.0503706
0.0496417
0.0488134
0.0545688
0.0545397
0.0544223
0.0542148
0.0539102
0.0535024
0.0529851
0.0523548
0.0516143
0.0507751
0.0567758
0.0567467
0.0566312
0.0564249
0.0561209
0.0557112
0.0551891
0.0545506
0.0537981
0.0529425
0.0374642
0.0370284
0.0366452
0.0363084
0.0360222
0.0357899
0.0356085
0.0354727
0.0353779
0.0353182
0.0375498
0.0369481
0.0365836
0.0363215
0.0361101
0.035934
0.0357877
0.0356711
0.0355838
0.0355254
0.0363105
0.0363508
0.0363127
0.036232
0.0361304
0.0360225
0.0359189
0.0358282
0.035755
0.0357018
0.0356146
0.0359674
0.0361279
0.0361733
0.0361531
0.0360983
0.0360295
0.0359605
0.0358998
0.0358496
0.035775
0.0360294
0.0361704
0.0362255
0.0362231
0.0361857
0.0361312
0.0360721
0.0360173
0.0359698
0.0363005
0.0363572
0.0363836
0.0363762
0.036342
0.0362897
0.036229
0.0361678
0.0361123
0.0360646
0.0368699
0.0367557
0.0366592
0.0365694
0.0364824
0.0363978
0.0363181
0.0362461
0.0361847
0.0361344
0.0373382
0.0371048
0.0369117
0.0367491
0.03661
0.0364899
0.0363871
0.0363009
0.0362312
0.0361766
0.0376507
0.037345
0.0370885
0.0368743
0.0366955
0.0365467
0.036424
0.036325
0.036247
0.0361882
0.0377908
0.0374498
0.0371615
0.0369199
0.0367189
0.0365534
0.0364187
0.0363109
0.0362277
0.0361663
0.0308555
0.0310141
0.0312252
0.0315118
0.0318086
0.0320909
0.0323313
0.032484
0.0324338
0.031782
0.0305702
0.0308732
0.0311871
0.0315356
0.0318702
0.0321755
0.032433
0.0326107
0.03266
0.0327289
0.0302986
0.0307635
0.0312028
0.0316311
0.0320125
0.0323407
0.0326067
0.0327967
0.0329028
0.0330285
0.0301097
0.0307933
0.0313714
0.0318733
0.032284
0.0326145
0.0328706
0.0330523
0.0331668
0.0332678
0.0303116
0.0311817
0.0318385
0.0323454
0.0327261
0.0330122
0.0332225
0.0333686
0.0334612
0.0335313
0.0313717
0.0322035
0.0327417
0.0331075
0.0333556
0.03353
0.0336534
0.0337368
0.0337888
0.033827
0.0338106
0.0340454
0.0341113
0.0341253
0.0341249
0.0341267
0.0341315
0.0341366
0.0341388
0.0341442
0.0375246
0.0363944
0.035653
0.0351896
0.0349
0.0347202
0.0346083
0.0345375
0.0344914
0.0344684
0.040292
0.0379197
0.0366617
0.0359407
0.035498
0.0352148
0.0350295
0.0349052
0.0348254
0.034779
0.0369393
0.0369578
0.0365947
0.0361846
0.0358322
0.0355603
0.0353598
0.0352183
0.0351241
0.0350682
0.0387608
0.0355864
0.0351498
0.0347082
0.0342626
0.0338182
0.0333815
0.0329603
0.0325638
0.0322034
0.0318923
0.0316437
0.0314664
0.0313579
0.0312965
0.0312342
0.0311013
0.0308181
0.0303255
0.0295004
0.0394357
0.0356189
0.0351952
0.0347655
0.0343329
0.0339025
0.0334789
0.0330663
0.0326689
0.0322931
0.0319479
0.0316454
0.0313988
0.0312162
0.0310919
0.0309967
0.0308671
0.030618
0.0301646
0.02944
0.0406035
0.0356879
0.0352831
0.0348744
0.0344682
0.0340703
0.0336827
0.0333037
0.0329294
0.032556
0.0321829
0.0318162
0.0314721
0.031175
0.0309535
0.0308184
0.0307425
0.0306428
0.0303758
0.0298435
0.0419673
0.0357784
0.0353877
0.0349986
0.0346249
0.0342753
0.0339502
0.0336426
0.0333389
0.0330219
0.032674
0.0322841
0.0318562
0.0314204
0.0310371
0.0307869
0.0307225
0.0308068
0.0308634
0.0307061
0.0432038
0.0358786
0.0354822
0.0350971
0.0347496
0.0344561
0.0342187
0.0340281
0.0338643
0.0336984
0.0334941
0.0332126
0.0328237
0.0323256
0.0317766
0.0313107
0.0311144
0.0313112
0.0318103
0.0322429
0.044033
0.0359842
0.0355418
0.0351247
0.034781
0.0345369
0.0343994
0.0343614
0.0344044
0.034498
0.0345975
0.0346415
0.0345549
0.0342663
0.0337471
0.0330893
0.0325656
0.0325803
0.0334485
0.0345711
0.0442512
0.0361042
0.0355496
0.0350441
0.0346664
0.0344504
0.0344049
0.0345275
0.0348092
0.0352331
0.0357681
0.0363593
0.0369159
0.0373016
0.0373512
0.0369402
0.0361636
0.0355583
0.0361912
0.037663
0.0437413
0.0362745
0.0354936
0.0348263
0.0343785
0.0341689
0.0341953
0.0344566
0.0349565
0.0357008
0.0366916
0.0379158
0.039325
0.040806
0.0421347
0.0429566
0.0428695
0.0417903
0.0409606
0.0411151
0.042484
0.0365835
0.0353404
0.0344453
0.0339273
0.0337316
0.0338252
0.0342005
0.0348695
0.0358569
0.0371958
0.0389204
0.0410546
0.0435857
0.0464161
0.0492563
0.0514576
0.0518125
0.0490208
0.0436007
0.040614
0.0372699
0.0349411
0.0338444
0.0333226
0.0331659
0.0332928
0.0336696
0.034285
0.0351392
0.0362365
0.0375792
0.0391604
0.0409562
0.04291
0.044923
0.0468399
0.0482696
0.0467606
0.038408
0.0364876
0.0351579
0.0334024
0.0323897
0.0318081
0.0314907
0.031339
0.0312851
0.031276
0.0312661
0.031214
0.031084
0.0308513
0.0305183
0.0301605
0.0300138
0.0306134
0.0326803
0.0354536
0.0359816
0.0326246
0.0321467
0.0314268
0.0308826
0.0305582
0.0304131
0.0303964
0.0304618
0.0305693
0.0306849
0.0307808
0.0308388
0.0308571
0.0308662
0.0309513
0.0312893
0.0321553
0.0338027
0.0361633
0.0393253
0.0299342
0.0296989
0.0294287
0.0292455
0.0291882
0.0292491
0.0294023
0.029618
0.029868
0.0301286
0.0303823
0.0306217
0.0308555
0.0311161
0.0314733
0.0320383
0.0329525
0.0343376
0.0362378
0.0388011
0.0275646
0.0274833
0.0274849
0.027579
0.0277684
0.0280421
0.0283812
0.0287644
0.0291715
0.029586
0.0299973
0.0304034
0.030814
0.0312571
0.031778
0.0324408
0.0333123
0.0344301
0.0357789
0.0372675
0.0252744
0.0253605
0.0255871
0.0259214
0.026341
0.0268261
0.027357
0.0279157
0.0284864
0.0290572
0.0296212
0.0301783
0.0307374
0.031316
0.0319426
0.0326476
0.0334523
0.03435
0.0352737
0.0360628
0.0229939
0.0232762
0.0237253
0.0242897
0.0249332
0.0256282
0.0263527
0.0270896
0.0278255
0.0285512
0.0292618
0.0299577
0.0306445
0.0313338
0.0320387
0.0327708
0.0335293
0.0342844
0.0349652
0.035433
0.0207118
0.0212201
0.0219045
0.0227027
0.02357
0.0244741
0.0253918
0.0263062
0.0272056
0.0280827
0.0289338
0.0297591
0.0305624
0.0313488
0.0321247
0.0328905
0.0336349
0.0343281
0.0349094
0.0352874
0.0184413
0.0192055
0.0201438
0.0211843
0.0222782
0.0233909
0.0244993
0.0255879
0.0266468
0.0276704
0.028656
0.0296039
0.030516
0.0313955
0.032243
0.0330554
0.0338204
0.0345112
0.035088
0.0354965
0.0162136
0.0172661
0.0184779
0.0197697
0.0210911
0.0224091
0.0237028
0.0249593
0.0261711
0.0273346
0.0284482
0.0295128
0.0305298
0.0315002
0.032424
0.0332965
0.0341068
0.0348376
0.0354624
0.0359552
0.0140805
0.015455
0.0169567
0.0185032
0.020048
0.021563
0.023032
0.0244464
0.0258017
0.0270965
0.0283308
0.029506
0.0306235
0.0316848
0.0326884
0.033631
0.0345053
0.0352988
0.0359987
0.0365935
0.0121262
0.0138519
0.0156482
0.0174409
0.0191944
0.0208899
0.0225183
0.0240758
0.0255617
0.0269768
0.0283228
0.0296019
0.0308161
0.0319661
0.0330522
0.0340714
0.0350189
0.0358886
0.0366732
0.0373708
0.0104852
0.0125653
0.0146349
0.0166449
0.018578
0.0204275
0.0221921
0.0238731
0.0254732
0.0269952
0.0284422
0.0298171
0.0311221
0.032359
0.0335273
0.034626
0.0356523
0.0366022
0.0374738
0.0382678
0.00935666
0.0117282
0.0140063
0.0161778
0.0182445
0.0202106
0.0220811
0.0238612
0.0255557
0.0271689
0.0287047
0.0301662
0.031556
0.0328753
0.0341247
0.0353034
0.0364093
0.0374411
0.0383972
0.03928
0.00896252
0.0114632
0.0138369
0.0160888
0.0182291
0.0202662
0.0222071
0.0240583
0.0258253
0.0275125
0.0291237
0.0306618
0.0321289
0.0335264
0.0348541
0.0361114
0.0372971
0.0384092
0.0394473
0.0404122
0.00941434
0.011828
0.014162
0.0164027
0.0185508
0.0206096
0.0225834
0.0244767
0.0262933
0.0280368
0.0297097
0.0313141
0.0328513
0.0343216
0.0357248
0.0370593
0.0383231
0.0395148
0.0406321
0.0416747
0.0106146
0.0127811
0.0149633
0.0171119
0.0192076
0.0212425
0.0232138
0.0251213
0.0269659
0.0287486
0.0304702
0.0321311
0.0337313
0.03527
0.0367455
0.0381556
0.0394974
0.0407676
0.0419632
0.0430814
0.0123505
0.0142117
0.0161796
0.0181813
0.0201794
0.0221534
0.0240923
0.0259902
0.0278437
0.0296506
0.0314094
0.0331183
0.0347757
0.0363789
0.037925
0.0394101
0.0408298
0.0421797
0.0434542
0.0446487
0.0144277
0.0159937
0.0177303
0.0195589
0.0214321
0.0233202
0.025205
0.0270749
0.0289222
0.0307416
0.0325285
0.0342791
0.0359893
0.037655
0.0392711
0.0408321
0.042332
0.043764
0.0451207
0.0463947
0.0167133
0.0180197
0.0195359
0.0211877
0.0229251
0.0247141
0.0265316
0.0283616
0.0301928
0.0320166
0.0338258
0.0356142
0.0373757
0.0391037
0.0407916
0.0424316
0.0440157
0.045535
0.0469798
0.0483393
0.0191231
0.0202133
0.0215324
0.023017
0.0246201
0.0263067
0.0280516
0.029836
0.031646
0.0334703
0.0352994
0.0371249
0.0389385
0.0407317
0.0424955
0.0442201
0.0458952
0.0475099
0.0490524
0.0505112
0.0313543
0.0321799
0.0343074
0.035622
0.0363719
0.0367896
0.0370021
0.0370935
0.0371185
0.0371061
0.0390297
0.0397904
0.0410172
0.0410141
0.0401852
0.0393255
0.0387052
0.0383334
0.038139
0.0380486
0.0385335
0.0377246
0.038472
0.0397204
0.0401941
0.0400382
0.0396493
0.0392731
0.0390054
0.038863
0.0369714
0.0361674
0.0364323
0.0376673
0.0388928
0.0395895
0.0397933
0.0397257
0.039581
0.0394754
0.0358786
0.0356338
0.0358528
0.0366954
0.0378598
0.0388779
0.0395166
0.0398051
0.0398831
0.0398809
0.0353943
0.0356628
0.0360353
0.0366489
0.0375313
0.038484
0.0392695
0.0397841
0.0400562
0.0401628
0.0353946
0.0360085
0.0365515
0.0370892
0.0377506
0.0385231
0.0392713
0.0398637
0.0402474
0.0404312
0.035744
0.0365599
0.0372275
0.0377614
0.0383004
0.0389149
0.0395613
0.0401363
0.0405545
0.0407764
0.0363368
0.0372569
0.0380015
0.0385566
0.0390437
0.0395555
0.0401023
0.0406199
0.0410241
0.0412538
0.0370999
0.0380673
0.0388546
0.0394374
0.0399134
0.0403711
0.0408442
0.0412993
0.0416684
0.0418888
0.0379912
0.0389745
0.0397855
0.0403965
0.0408833
0.0413205
0.0417475
0.042151
0.0424822
0.0426869
0.0389898
0.0399754
0.0408006
0.0414394
0.0419479
0.0423854
0.0427885
0.0431557
0.0434547
0.0436438
0.0400913
0.0410743
0.0419106
0.0425761
0.0431112
0.0435606
0.0439556
0.0443007
0.0445761
0.0447522
0.0413008
0.0422819
0.0431286
0.0438196
0.0443822
0.0448492
0.045246
0.0455799
0.0458402
0.0460065
0.0426305
0.0436115
0.0444692
0.0451838
0.0457728
0.0462593
0.0466632
0.0469931
0.0472444
0.047404
0.0440957
0.0450795
0.0459481
0.0466839
0.0472963
0.0478015
0.0482146
0.0485443
0.0487907
0.0489459
0.0457148
0.0467033
0.0475824
0.048336
0.0489679
0.049489
0.0499108
0.0502419
0.0504853
0.0506375
0.0475079
0.0485023
0.0493905
0.0501578
0.0508044
0.0513372
0.0517655
0.0520976
0.0523385
0.052488
0.0494969
0.0504974
0.0513927
0.0521691
0.0528247
0.0533639
0.0537948
0.0541257
0.0543632
0.05451
0.0517182
0.0527264
0.0536252
0.0544027
0.0550571
0.0555932
0.0560193
0.0563446
0.0565763
0.0567193
0.0203191
0.0184041
0.0165812
0.0148968
0.0133634
0.0119834
0.010751
0.00965721
0.00868979
0.0078365
0.0070843
0.00642154
0.00583687
0.00532053
0.00486351
0.00445816
0.00409764
0.00377617
0.00348868
0.00323087
0.00299899
0.00278985
0.00260069
0.00242914
0.00227313
0.00213087
0.00200081
0.0018816
0.00177204
0.00167111
0.00157789
0.0014916
0.00141156
0.00133716
0.00126791
0.00120336
0.00114315
0.00108682
0.00103449
0.000984822
0.0203389
0.0184122
0.0165853
0.0148989
0.0133642
0.0119834
0.0107505
0.00965648
0.00868891
0.00783556
0.00708337
0.00642064
0.00583604
0.00531977
0.00486282
0.00445754
0.00409709
0.00377568
0.00348825
0.00323048
0.00299866
0.00278955
0.00260044
0.00242891
0.00227293
0.00213069
0.00200066
0.00188146
0.00177192
0.001671
0.0015778
0.00149151
0.00141149
0.00133709
0.00126785
0.0012033
0.0011431
0.00108675
0.00103447
0.000984781
0.0203758
0.0184279
0.0165934
0.0149029
0.0133657
0.0119834
0.0107496
0.00965499
0.00868714
0.00783368
0.0070815
0.00641886
0.00583437
0.00531824
0.00486144
0.0044563
0.00409599
0.00377471
0.0034874
0.00322973
0.00299799
0.00278897
0.00259993
0.00242846
0.00227254
0.00213035
0.00200035
0.00188119
0.00177168
0.00167078
0.0015776
0.00149134
0.00141133
0.00133695
0.00126772
0.00120319
0.00114301
0.00108665
0.00103441
0.000984713
0.020426
0.0184504
0.0166051
0.0149087
0.013368
0.0119834
0.0107482
0.00965276
0.00868448
0.00783086
0.00707869
0.00641617
0.00583186
0.00531595
0.00485937
0.00445446
0.00409434
0.00377326
0.00348611
0.00322861
0.002997
0.00278811
0.00259916
0.00242779
0.00227194
0.00212982
0.00199988
0.00188078
0.00177131
0.00167045
0.0015773
0.00149108
0.00141109
0.00133674
0.00126753
0.00120302
0.00114286
0.00108651
0.0010343
0.000984615
0.0204847
0.018479
0.0166203
0.0149164
0.0133709
0.0119834
0.0107462
0.00964974
0.00868091
0.00782709
0.00707494
0.00641259
0.00582852
0.0053129
0.00485661
0.00445199
0.00409215
0.00377133
0.0034844
0.00322711
0.00299568
0.00278695
0.00259814
0.0024269
0.00227115
0.00212913
0.00199926
0.00188023
0.00177081
0.00167001
0.00157691
0.00149072
0.00141077
0.00133646
0.00126727
0.0012028
0.00114266
0.00108634
0.00103414
0.000984487
0.0205484
0.0185125
0.0166387
0.0149257
0.0133744
0.0119832
0.0107438
0.00964594
0.00867642
0.00782235
0.00707023
0.0064081
0.00582434
0.00530908
0.00485315
0.00444891
0.00408941
0.00376891
0.00348227
0.00322524
0.00299403
0.00278551
0.00259687
0.00242578
0.00227016
0.00212826
0.00199849
0.00187954
0.0017702
0.00166947
0.00157641
0.00149029
0.00141038
0.00133611
0.00126696
0.00120252
0.00114242
0.00108612
0.00103395
0.000984327
0.0206146
0.0185503
0.01666
0.0149364
0.0133785
0.0119828
0.0107407
0.00964132
0.00867099
0.00781664
0.00706457
0.0064027
0.00581931
0.00530449
0.00484901
0.00444521
0.00408612
0.00376601
0.00347971
0.00322299
0.00299205
0.00278378
0.00259534
0.00242445
0.00226897
0.00212722
0.00199756
0.00187872
0.00176946
0.00166881
0.00157582
0.00148976
0.0014099
0.00133569
0.00126658
0.00120219
0.00114212
0.00108586
0.00103372
0.000984134
0.020683
0.0185917
0.0166837
0.0149485
0.0133829
0.0119823
0.0107371
0.00963584
0.0086646
0.00780994
0.00705794
0.00639639
0.00581344
0.00529914
0.00484417
0.0044409
0.00408228
0.00376263
0.00347672
0.00322038
0.00298975
0.00278176
0.00259356
0.00242289
0.00226759
0.002126
0.00199647
0.00187776
0.0017686
0.00166805
0.00157513
0.00148915
0.00140935
0.0013352
0.00126614
0.0012018
0.00114177
0.00108556
0.00103344
0.000983909
0.0207527
0.018636
0.0167096
0.0149617
0.0133876
0.0119814
0.0107327
0.00962949
0.00865723
0.00780223
0.00705034
0.00638915
0.00580672
0.00529301
0.00483865
0.00443597
0.0040779
0.00375876
0.00347331
0.00321739
0.00298711
0.00277945
0.00259152
0.0024211
0.00226601
0.00212461
0.00199523
0.00187667
0.00176762
0.00166718
0.00157435
0.00148845
0.00140871
0.00133464
0.00126563
0.00120136
0.00114138
0.00108522
0.00103313
0.00098365
0.0208227
0.0186827
0.0167374
0.0149759
0.0133925
0.0119802
0.0107277
0.00962221
0.00864885
0.0077935
0.00704174
0.00638099
0.00579914
0.00528611
0.00483242
0.00443042
0.00407297
0.00375442
0.00346948
0.00321403
0.00298415
0.00277687
0.00258924
0.0024191
0.00226424
0.00212305
0.00199384
0.00187544
0.00176651
0.0016662
0.00157346
0.00148767
0.00140801
0.00133401
0.00126507
0.00120086
0.00114094
0.00108484
0.00103278
0.000983357
0.0208988
0.0187365
0.0167696
0.0149919
0.0133974
0.0119777
0.0107207
0.00961254
0.00863794
0.00778223
0.00703071
0.00637054
0.00578949
0.00527732
0.00482452
0.00442337
0.00406673
0.00374891
0.00346463
0.00320976
0.00298041
0.00277357
0.00258635
0.00241655
0.00226199
0.00212106
0.00199208
0.00187387
0.00176512
0.00166495
0.00157235
0.00148667
0.00140712
0.00133321
0.00126436
0.00120023
0.00114038
0.00108435
0.00103233
0.000982982
0.0209918
0.0188021
0.0168093
0.0150119
0.0134035
0.0119747
0.0107119
0.00960047
0.00862431
0.00776812
0.00701692
0.00635747
0.00577742
0.00526633
0.00481466
0.00441456
0.00405894
0.00374201
0.00345858
0.00320443
0.00297575
0.00276946
0.00258275
0.00241337
0.0022592
0.00211858
0.00198989
0.00187191
0.00176338
0.00166339
0.00157096
0.00148542
0.00140601
0.00133222
0.00126348
0.00119944
0.00113968
0.00108373
0.00103178
0.000982507
0.0210893
0.0188706
0.0168508
0.0150324
0.0134093
0.0119705
0.0107016
0.00958665
0.00860885
0.00775225
0.00700145
0.00634286
0.00576395
0.00525408
0.00480366
0.00440476
0.00405026
0.00373436
0.00345185
0.00319852
0.00297056
0.0027649
0.00257874
0.00240984
0.00225608
0.00211582
0.00198745
0.00186974
0.00176145
0.00166166
0.00156942
0.00148404
0.00140478
0.00133111
0.0012625
0.00119856
0.00113891
0.00108305
0.00103117
0.000981977
0.0211917
0.0189417
0.0168935
0.0150531
0.0134142
0.011965
0.0106896
0.00957097
0.00859151
0.00773456
0.00698427
0.00632669
0.00574905
0.00524056
0.00479155
0.00439397
0.00404072
0.00372594
0.00344445
0.00319201
0.00296485
0.00275989
0.00257434
0.00240596
0.00225267
0.00211279
0.00198477
0.00186735
0.00175933
0.00165977
0.00156773
0.00148252
0.00140342
0.0013299
0.00126142
0.0011976
0.00113806
0.0010823
0.0010305
0.00098139
0.0212991
0.0190153
0.0169372
0.0150735
0.0134182
0.0119579
0.0106757
0.00955331
0.0085722
0.00771499
0.00696535
0.00630892
0.00573273
0.00522578
0.00477831
0.0043822
0.00403031
0.00371677
0.00343639
0.00318493
0.00295864
0.00275443
0.00256954
0.00240173
0.00224894
0.0021095
0.00198186
0.00186476
0.00175702
0.0016577
0.00156589
0.00148087
0.00140195
0.00132859
0.00126025
0.00119656
0.00113714
0.00108147
0.00102977
0.000980746
0.0214119
0.0190911
0.0169813
0.0150934
0.0134208
0.011949
0.0106598
0.00953355
0.00855083
0.00769347
0.00694463
0.00628953
0.00571496
0.00520971
0.00476394
0.00436943
0.00401903
0.00370683
0.00342766
0.00317727
0.00295192
0.00274852
0.00256436
0.00239716
0.00224491
0.00210594
0.0019787
0.00186196
0.00175453
0.00165548
0.0015639
0.0014791
0.00140037
0.00132717
0.00125898
0.00119543
0.00113613
0.00108058
0.00102898
0.000980046
0.0215301
0.019169
0.0170258
0.0151123
0.0134217
0.0119381
0.0106416
0.00951154
0.0085273
0.00766995
0.00692208
0.00626851
0.00569573
0.00519236
0.00474844
0.00435568
0.00400689
0.00369615
0.00341828
0.00316904
0.00294469
0.00274218
0.00255878
0.00239226
0.00224058
0.00210211
0.00197531
0.00185894
0.00175185
0.00165309
0.00156177
0.00147719
0.00139866
0.00132565
0.00125762
0.00119422
0.00113505
0.00107963
0.00102812
0.00097929
0.0216539
0.0192488
0.0170701
0.01513
0.0134207
0.0119249
0.0106211
0.00948716
0.00850152
0.00764436
0.00689767
0.00624582
0.00567503
0.00517372
0.00473181
0.00434095
0.00399389
0.00368472
0.00340824
0.00316023
0.00293697
0.0027354
0.00255282
0.00238701
0.00223596
0.00209802
0.00197169
0.00185573
0.00174898
0.00165053
0.00155949
0.00147515
0.00139684
0.00132402
0.00125617
0.00119292
0.0011339
0.0010786
0.0010272
0.000978478
0.0217833
0.0193303
0.0171139
0.0151461
0.0134175
0.0119091
0.0105979
0.00946027
0.0084734
0.00761664
0.00687133
0.00622143
0.00565284
0.00515379
0.00471405
0.00432523
0.00398004
0.00367255
0.00339756
0.00315087
0.00292875
0.00272819
0.00254648
0.00238144
0.00223104
0.00209368
0.00196783
0.00185231
0.00174594
0.00164782
0.00155707
0.00147299
0.00139491
0.0013223
0.00125463
0.00119155
0.00113267
0.00107751
0.00102622
0.00097761
0.0219185
0.0194134
0.0171571
0.0151602
0.0134116
0.0118905
0.010572
0.00943072
0.00844283
0.00758671
0.00684304
0.00619533
0.00562915
0.00513254
0.00469515
0.00430854
0.00396534
0.00365964
0.00338624
0.00314095
0.00292005
0.00272056
0.00253977
0.00237553
0.00222582
0.00208907
0.00196375
0.00184869
0.00174271
0.00164495
0.0015545
0.0014707
0.00139286
0.00132047
0.00125299
0.00119009
0.00113137
0.00107635
0.00102518
0.000976685
0.0220596
0.0194978
0.0171992
0.015172
0.0134029
0.0118689
0.010543
0.00939838
0.0084097
0.00755451
0.00681275
0.00616749
0.00560394
0.00511
0.00467513
0.00429087
0.00394979
0.00364601
0.00337428
0.00313048
0.00291086
0.00271251
0.00253269
0.0023693
0.00222032
0.00208422
0.00195944
0.00184487
0.00173931
0.00164193
0.0015518
0.00146829
0.0013907
0.00131855
0.00125127
0.00118856
0.00112999
0.00107513
0.00102408
0.000975705
0.0222065
0.0195834
0.0172399
0.0151811
0.013391
0.011844
0.0105109
0.00936309
0.00837394
0.00751998
0.00678042
0.00613788
0.00557721
0.00508614
0.00465398
0.00427223
0.00393341
0.00363165
0.00336169
0.00311946
0.0029012
0.00270404
0.00252524
0.00236276
0.00221454
0.00207911
0.00195492
0.00184086