/*--------------------------------*- C++ -*----------------------------------*\
| =========                 |                                                 |
| \\      /  F ield         | OpenFOAM: The Open Source CFD Toolbox           |
|  \\    /   O peration     | Version:  2312                                  |
|   \\  /    A nd           | Website:  www.openfoam.com                      |
|    \\/     M anipulation  |                                                 |
\*---------------------------------------------------------------------------*/
FoamFile
{
    version     2.0;
    format      ascii;
    arch        "LSB;label=32;scalar=64";
    class       volScalarField;
    location    "0";
    object      p;
}
// * * * * * * * * * * * * * * * * * * * * * * * * * * * * * * * * * * * * * //

dimensions      [0 2 -2 0 0 0 0];

internalField   nonuniform List<scalar> 
3200
(
-0.181682
-0.166678
-0.144494
-0.121137
-0.0997587
-0.0816127
-0.0669091
-0.0553656
-0.0464948
-0.0400025
-0.264142
-0.248836
-0.225747
-0.200571
-0.176479
-0.154937
-0.136416
-0.120874
-0.108031
-0.0976842
-0.343624
-0.328078
-0.304296
-0.277707
-0.251457
-0.227143
-0.205425
-0.18645
-0.170119
-0.156507
-0.418169
-0.402433
-0.378129
-0.350453
-0.322509
-0.295975
-0.271649
-0.249815
-0.23049
-0.21377
-0.485936
-0.470052
-0.44536
-0.416863
-0.387616
-0.359346
-0.332944
-0.308799
-0.287006
-0.267615
-0.545234
-0.529241
-0.504268
-0.475166
-0.444938
-0.41534
-0.387326
-0.361356
-0.337588
-0.316049
-0.594574
-0.578502
-0.553335
-0.5238
-0.492855
-0.462268
-0.433036
-0.405669
-0.380375
-0.35719
-0.632706
-0.616581
-0.591285
-0.561453
-0.530007
-0.498718
-0.468611
-0.440233
-0.413826
-0.389453
-0.658653
-0.642495
-0.61712
-0.587103
-0.555339
-0.5236
-0.492928
-0.46389
-0.436759
-0.411618
-0.671745
-0.65557
-0.630157
-0.60005
-0.568131
-0.536172
-0.505222
-0.475861
-0.448373
-0.422858
0.382675
0.363834
0.333602
0.301228
0.270069
0.241399
0.2156
0.192638
0.1723
0.154553
0.373441
0.363279
0.338508
0.307647
0.276559
0.247497
0.221182
0.197705
0.176899
0.158783
0.34888
0.348489
0.334176
0.30964
0.281594
0.253782
0.227824
0.204278
0.183216
0.164813
0.311515
0.317277
0.31349
0.298332
0.276732
0.252917
0.229318
0.207121
0.186806
0.168809
0.262902
0.272166
0.276579
0.270928
0.257507
0.239863
0.220665
0.20154
0.183372
0.166893
0.204315
0.215646
0.225913
0.228421
0.223245
0.212748
0.199291
0.184625
0.169902
0.156145
0.137181
0.149817
0.164197
0.173217
0.175455
0.172093
0.164909
0.155487
0.14506
0.135013
0.063134
0.0766526
0.0939569
0.108039
0.11658
0.119809
0.118866
0.11499
0.10926
0.103421
-0.0160062
-0.0018539
0.0175731
0.0355679
0.0493243
0.0583901
0.0633629
0.0651359
0.064511
0.0630759
-0.0982853
-0.0836562
-0.0626571
-0.0416406
-0.0236546
-0.00962825
0.000583553
0.00754398
0.0118777
0.0148221
0.135017
0.114817
0.0977104
0.0834993
0.0716082
0.0615852
0.053076
0.0458095
0.0395796
0.0342271
0.0296253
0.0256694
0.0222703
0.0193511
0.016845
0.0146938
0.0128468
0.0112595
0.0098929
0.00880275
0.138485
0.117463
0.0998311
0.0851905
0.0729509
0.0626429
0.0539029
0.0464538
0.0400834
0.0346255
0.0299454
0.0259312
0.022488
0.0195345
0.0170009
0.014827
0.0129611
0.011358
0.00997833
0.00887537
0.143721
0.121727
0.103433
0.0881616
0.07536
0.0645669
0.055423
0.0476505
0.0410299
0.0353825
0.03056
0.0264377
0.0229107
0.0198907
0.017303
0.0150844
0.013181
0.0115467
0.0101416
0.00901388
0.147956
0.12586
0.107377
0.0916494
0.0783082
0.0669873
0.0573786
0.0492239
0.0423016
0.0364203
0.0314161
0.0271508
0.023509
0.020395
0.0177294
0.0154456
0.0134879
0.0118084
0.0103669
0.00920445
0.148157
0.127771
0.110214
0.0946419
0.0810812
0.0694036
0.0594257
0.0509413
0.0437413
0.03763
0.0324348
0.0280095
0.0242329
0.0210047
0.0182426
0.0158777
0.0138524
0.0121175
0.0106316
0.00942778
0.141775
0.125458
0.110412
0.0960067
0.0828652
0.0712491
0.061177
0.0525366
0.0451599
0.0388703
0.033505
0.0289234
0.0250068
0.0216561
0.0187886
0.0163347
0.0142356
0.0124409
0.0109079
0.00966109
0.127172
0.117346
0.106575
0.0946457
0.0828612
0.0719633
0.0622355
0.0537158
0.0463286
0.0399566
0.0344754
0.0297676
0.0257282
0.0222651
0.0192989
0.0167611
0.0145927
0.0127425
0.0111666
0.009881
0.103785
0.102526
0.0976665
0.0896754
0.0803991
0.071035
0.0621923
0.0541408
0.0469657
0.0406565
0.0351568
0.0303903
0.0262763
0.0227366
0.019699
0.0170988
0.0148783
0.0129868
0.01138
0.0100659
0.0722878
0.0811107
0.083391
0.0806762
0.075034
0.0680155
0.0606239
0.0534381
0.0467588
0.0407179
0.03535
0.0306363
0.0265314
0.0229787
0.0199188
0.0172946
0.0150524
0.0131435
0.0115249
0.0101976
0.0336359
0.0540664
0.064693
0.0682019
0.0669075
0.0628054
0.0573367
0.0513986
0.0455157
0.0399754
0.0349176
0.0303934
0.0264034
0.0229201
0.0199029
0.0173059
0.0150825
0.013188
0.0115819
0.0102604
-0.00875177
0.0220633
0.0404555
0.0500362
0.0533632
0.0527389
0.0498752
0.0458775
0.0414324
0.0369543
0.0326815
0.0287399
0.0251852
0.0220301
0.0192626
0.0168572
0.0147817
0.013002
0.0114846
0.0102255
-0.0417588
-0.00773076
0.0148367
0.0286338
0.0359946
0.0389088
0.0389781
0.0373474
0.0347872
0.0317985
0.0286975
0.0256762
0.0228439
0.0202566
0.0179358
0.0158822
0.0140843
0.0125234
0.0111786
0.0100455
-0.0659058
-0.0326222
-0.00824069
0.00829442
0.0187284
0.0246442
0.0273998
0.028056
0.0273885
0.0259413
0.0240838
0.02206
0.0200254
0.0180751
0.016263
0.0146156
0.0131421
0.0118407
0.0107033
0.00972571
-0.0838855
-0.0526387
-0.0280931
-0.0100801
0.00246874
0.0107101
0.0157248
0.0184266
0.019535
0.0195897
0.0189815
0.0179858
0.0167919
0.0155258
0.0142692
0.0130721
0.0119632
0.0109569
0.0100582
0.00926378
-0.0973007
-0.0684516
-0.0446622
-0.0261311
-0.0122998
-0.00239142
0.00440539
0.00883393
0.0115212
0.0129677
0.0135574
0.0135761
0.0132317
0.0126717
0.0119987
0.0112823
0.0105684
0.00988571
0.00925164
0.00866446
-0.107257
-0.0808263
-0.0582363
-0.0398294
-0.0253652
-0.0143607
-0.00623863
-0.000422927
0.00360647
0.00628969
0.00798284
0.00896463
0.00944765
0.00959069
0.00951016
0.00928995
0.00898952
0.00865023
0.00830021
0.0079393
-0.114548
-0.0904288
-0.0692244
-0.0513347
-0.0367047
-0.0250601
-0.0160111
-0.00913019
-0.00400342
-0.000259996
0.00241566
0.00428223
0.00554591
0.00636749
0.0068701
0.00714673
0.00726667
0.00728105
0.00722704
0.00710576
-0.119779
-0.0978096
-0.0780387
-0.0608876
-0.0464075
-0.0344659
-0.0248156
-0.0171525
-0.0111593
-0.00653473
-0.00300942
-0.000352552
0.00162757
0.0030864
0.00414773
0.00490871
0.00544473
0.00581383
0.00606019
0.0061858
-0.123429
-0.10342
-0.0850534
-0.0687489
-0.0546188
-0.0426259
-0.0326276
-0.0244183
-0.0177634
-0.0124264
-0.00818468
-0.00483888
-0.00221683
-0.000173591
0.00141043
0.00263241
0.00357048
0.00428692
0.00483084
0.00520456
-0.125877
-0.107632
-0.0905931
-0.0751687
-0.0615051
-0.0496278
-0.0394704
-0.030903
-0.02376
-0.0178616
-0.0130291
-0.00909534
-0.00591007
-0.00334208
-0.00127938
0.00037205
0.00169023
0.00273932
0.00357149
0.00418884
-0.127427
-0.110747
-0.0949339
-0.0803742
-0.0672332
-0.0555778
-0.0453956
-0.0366149
-0.0291253
-0.0227951
-0.0174853
-0.0130593
-0.00938906
-0.00635874
-0.00386609
-0.00182249
-0.000152187
0.00120898
0.00231458
0.00316599
-0.128321
-0.113012
-0.0983069
-0.0845647
-0.0719598
-0.0605862
-0.0504699
-0.0415829
-0.0338582
-0.0272042
-0.021516
-0.0166849
-0.0126042
-0.00917369
-0.00630184
-0.00390681
-0.00191659
-0.000268488
0.00109116
0.00216265
-0.12875
-0.114627
-0.100904
-0.0879112
-0.075826
-0.0647597
-0.0547653
-0.0458473
-0.0379725
-0.0310818
-0.0250992
-0.0199403
-0.0155179
-0.0117469
-0.00854659
-0.00584251
-0.00356729
-0.00166068
-6.9847e-05
0.00120408
-0.128866
-0.115753
-0.102883
-0.0905579
-0.0789551
-0.0681961
-0.0583528
-0.0494534
-0.041491
-0.034432
-0.0282245
-0.0228047
-0.0181028
-0.0140473
-0.0105677
-0.00759726
-0.00507337
-0.00293887
-0.0011424
0.000313397
-0.128786
-0.116516
-0.104371
-0.0926247
-0.0814524
-0.070982
-0.0612983
-0.0524468
-0.0444403
-0.0372655
-0.0308896
-0.025266
-0.0203398
-0.0160512
-0.0123394
-0.00914445
-0.00640877
-0.00407834
-0.00210359
-0.00048874
-0.128601
-0.117018
-0.10547
-0.094209
-0.0834058
-0.0731918
-0.0636606
-0.0548702
-0.046848
-0.0395962
-0.0330971
-0.027318
-0.0222158
-0.0177413
-0.0138415
-0.0104628
-0.00755201
-0.00505827
-0.00293389
-0.00118451
-0.12838
-0.117335
-0.106261
-0.0953886
-0.0848863
-0.074887
-0.0654897
-0.0567612
-0.0487398
-0.041439
-0.0348524
-0.0289582
-0.0237229
-0.0191052
-0.015059
-0.0115356
-0.00848595
-0.00586178
-0.00361715
-0.00175899
-0.128173
-0.117525
-0.106803
-0.0962229
-0.0859494
-0.0761162
-0.0668259
-0.0581514
-0.050138
-0.0428075
-0.0361618
-0.0301868
-0.0248561
-0.0201344
-0.0159807
-0.0123504
-0.00919743
-0.00647565
-0.00414063
-0.00220028
-0.128017
-0.11763
-0.107141
-0.0967554
-0.0866359
-0.0769157
-0.0676998
-0.0590646
-0.05106
-0.0437132
-0.0370311
-0.0310049
-0.0256127
-0.0208234
-0.0165992
-0.0128984
-0.00967691
-0.00689018
-0.00449483
-0.00249944
-0.127933
-0.117674
-0.107302
-0.0970146
-0.0869725
-0.0773096
-0.0681318
-0.0595171
-0.0515181
-0.044164
-0.0374647
-0.0314136
-0.0259913
-0.0211687
-0.0169097
-0.0131738
-0.00991822
-0.00709904
-0.00467351
-0.00265055
-0.393611
-0.383791
-0.364418
-0.336206
-0.300206
-0.257755
-0.210337
-0.159275
-0.105952
-0.054787
-0.362683
-0.354761
-0.339111
-0.316265
-0.286994
-0.252245
-0.212992
-0.170199
-0.125517
-0.0829845
-0.335774
-0.329383
-0.316747
-0.298252
-0.2744
-0.245734
-0.212822
-0.176654
-0.13914
-0.103013
-0.312457
-0.307247
-0.296912
-0.281673
-0.261808
-0.237658
-0.209797
-0.17938
-0.148005
-0.117074
-0.29221
-0.287867
-0.27922
-0.266389
-0.249561
-0.229078
-0.205585
-0.180104
-0.153657
-0.126943
-0.274545
-0.270833
-0.263441
-0.252462
-0.238089
-0.220695
-0.200886
-0.17941
-0.156861
-0.133671
-0.259078
-0.255844
-0.249431
-0.239948
-0.227611
-0.21279
-0.195979
-0.177682
-0.158262
-0.138051
-0.245525
-0.242676
-0.237064
-0.228821
-0.218173
-0.205451
-0.191035
-0.175267
-0.158394
-0.140697
-0.233671
-0.231145
-0.226206
-0.218997
-0.209738
-0.198708
-0.186199
-0.172454
-0.157669
-0.142083
-0.223344
-0.221093
-0.216721
-0.210372
-0.202244
-0.192572
-0.181583
-0.169469
-0.156396
-0.142572
-0.214395
-0.212376
-0.208481
-0.20284
-0.19563
-0.187046
-0.177274
-0.166478
-0.154807
-0.142444
-0.206694
-0.20487
-0.201368
-0.196307
-0.189837
-0.182126
-0.173333
-0.163602
-0.153076
-0.141916
-0.200124
-0.19846
-0.195282
-0.19069
-0.184818
-0.177807
-0.169799
-0.160928
-0.151331
-0.141153
-0.194584
-0.19305
-0.190134
-0.185921
-0.180527
-0.174077
-0.166698
-0.158517
-0.149666
-0.140281
-0.189988
-0.188558
-0.185851
-0.181941
-0.176928
-0.170924
-0.164045
-0.156413
-0.148153
-0.139398
-0.186263
-0.184915
-0.182374
-0.178703
-0.17399
-0.168335
-0.161848
-0.154643
-0.146843
-0.138576
-0.183349
-0.182066
-0.179653
-0.176168
-0.171687
-0.166301
-0.160112
-0.15323
-0.145774
-0.13787
-0.181202
-0.179967
-0.177652
-0.174306
-0.169997
-0.16481
-0.158838
-0.152188
-0.144972
-0.137317
-0.179787
-0.178588
-0.176342
-0.173096
-0.168908
-0.163857
-0.158029
-0.151526
-0.144457
-0.136946
-0.179085
-0.177909
-0.175708
-0.172524
-0.16841
-0.163437
-0.157686
-0.151253
-0.144242
-0.136775
-0.0365232
-0.0430344
-0.0519413
-0.0635425
-0.0783195
-0.0965506
-0.118021
-0.14147
-0.163737
-0.178796
-0.0947998
-0.105142
-0.118006
-0.133591
-0.15217
-0.173781
-0.197948
-0.2232
-0.246356
-0.261706
-0.154144
-0.167744
-0.184087
-0.203092
-0.224853
-0.249221
-0.275532
-0.302182
-0.326016
-0.341599
-0.211872
-0.228575
-0.247903
-0.269755
-0.294112
-0.320685
-0.348676
-0.376401
-0.400749
-0.416514
-0.266127
-0.285499
-0.307286
-0.331439
-0.357859
-0.386158
-0.41544
-0.443973
-0.4687
-0.484607
-0.314918
-0.336435
-0.360192
-0.386162
-0.414185
-0.443802
-0.474055
-0.503183
-0.528181
-0.544192
-0.356364
-0.379528
-0.404809
-0.432171
-0.461407
-0.492006
-0.522967
-0.552521
-0.577706
-0.593791
-0.388893
-0.413248
-0.439643
-0.468016
-0.498123
-0.529417
-0.560873
-0.590717
-0.616026
-0.63216
-0.411295
-0.436423
-0.463546
-0.492579
-0.523251
-0.554992
-0.586761
-0.616785
-0.642167
-0.65833
-0.422752
-0.448263
-0.475748
-0.505107
-0.536057
-0.568016
-0.599937
-0.630046
-0.655462
-0.671638
0.162941
0.180396
0.200469
0.22319
0.248779
0.277277
0.308309
0.3406
0.370794
0.389621
0.167075
0.184915
0.205464
0.228709
0.254822
0.283719
0.314684
0.34546
0.370175
0.380291
0.172906
0.191058
0.211882
0.235209
0.260976
0.288628
0.316548
0.340982
0.355205
0.355515
0.176593
0.194369
0.214466
0.23646
0.259877
0.283535
0.304996
0.32003
0.323696
0.317834
0.174253
0.190545
0.208515
0.227453
0.246478
0.263964
0.277236
0.282744
0.278192
0.268825
0.162975
0.176577
0.191124
0.205621
0.218915
0.229256
0.234279
0.23162
0.22121
0.20978
0.141226
0.151146
0.161423
0.170696
0.177732
0.180945
0.178557
0.169388
0.154873
0.142146
0.108956
0.114696
0.120306
0.124055
0.124868
0.121503
0.112822
0.0986018
0.0811756
0.0675771
0.0679153
0.0692784
0.0698102
0.0679337
0.0628481
0.0536618
0.0397808
0.0216636
0.00212854
-0.0120941
0.0189671
0.0159764
0.0115786
0.00453838
-0.0057662
-0.0198951
-0.0379892
-0.0591136
-0.0802088
-0.0949019
0.0441043
0.0436005
0.0420607
0.0406895
0.0400335
0.0400412
0.040687
0.0419701
0.0439132
0.0465602
0.0499761
0.0542479
0.0594897
0.0658511
0.0735312
0.0827954
0.0939929
0.107571
0.124106
0.143793
0.043534
0.0430321
0.041599
0.0403341
0.0397718
0.0398622
0.0405825
0.0419364
0.0439518
0.0466792
0.050191
0.0545827
0.0599771
0.0665319
0.0744523
0.0840097
0.0955629
0.109577
0.126641
0.147152
0.042412
0.0419185
0.0406972
0.0396433
0.0392654
0.0395172
0.0403821
0.0418721
0.044025
0.0469024
0.0505903
0.0551992
0.0608673
0.0677658
0.0761082
0.0861668
0.0982952
0.112949
0.13068
0.152168
0.0407785
0.0403067
0.0393964
0.0386531
0.038543
0.039026
0.0400958
0.0417765
0.0441183
0.0471969
0.0511131
0.0559945
0.0619972
0.0693066
0.0781389
0.0887469
0.101432
0.116554
0.134477
0.156071
0.0386928
0.0382639
0.0377541
0.0374116
0.0376392
0.0384079
0.0397272
0.0416368
0.0442016
0.0475093
0.0516727
0.0568312
0.0631518
0.0708257
0.0800573
0.0910471
0.103971
0.118949
0.135948
0.155829
0.0362336
0.0358748
0.035842
0.0359747
0.0365879
0.0376724
0.0392621
0.0414173
0.0442166
0.0477563
0.0521522
0.0575418
0.0640847
0.071954
0.0813132
0.0922684
0.104793
0.118615
0.133101
0.148905
0.0335013
0.0332421
0.0337453
0.0344032
0.0354156
0.0368122
0.038663
0.0410521
0.0440697
0.0478137
0.0523915
0.0579203
0.064523
0.072314
0.0813642
0.0916287
0.102815
0.11417
0.12438
0.133681
0.0306232
0.0304895
0.0315651
0.0327589
0.0341365
0.0358012
0.037871
0.0404509
0.0436365
0.0475181
0.0521824
0.0577077
0.0641499
0.0715168
0.0797181
0.0884762
0.0971723
0.104596
0.108895
0.109618
0.0277681
0.0277737
0.0294171
0.0310917
0.0327424
0.0345974
0.0368181
0.0395181
0.0427864
0.046695
0.0512973
0.0566152
0.0626145
0.0691604
0.0759469
0.0823868
0.0874668
0.0896242
0.0867897
0.0774246
0.0251823
0.0253202
0.0274131
0.029403
0.0311926
0.0331531
0.0354498
0.0381854
0.0414316
0.0452326
0.049597
0.0544775
0.0597347
0.0650787
0.069979
0.0735302
0.074281
0.0702273
0.0590554
0.0380737
0.0230652
0.0232127
0.0251548
0.0271425
0.0289687
0.030909
0.0331086
0.0356512
0.0385811
0.0419041
0.0455751
0.049473
0.0533608
0.0568222
0.0591658
0.0592784
0.0554382
0.0453326
0.0264041
-0.00494171
0.0212125
0.0212224
0.0226332
0.0242924
0.0259712
0.0277343
0.0296592
0.0317924
0.0341425
0.0366725
0.039284
0.0417911
0.0438799
0.0450482
0.0445224
0.0411518
0.0333278
0.0190574
-0.00399239
-0.0384942
0.0191673
0.0190258
0.0200328
0.0213239
0.0227248
0.024201
0.0257596
0.0273992
0.0290874
0.0307448
0.0322259
0.0332928
0.0335789
0.0325405
0.0294001
0.0230939
0.0122614
-0.0046807
-0.029474
-0.0631579
0.0167739
0.0165074
0.0172246
0.0181783
0.0192463
0.0203607
0.0214812
0.0225638
0.0235378
0.0242873
0.0246311
0.024299
0.0229031
0.0199048
0.0145846
0.00602804
-0.00684564
-0.0251903
-0.0500689
-0.081639
0.014043
0.0136796
0.0141734
0.0148265
0.015549
0.0162644
0.0169054
0.0173971
0.0176394
0.0174896
0.0167452
0.0151241
0.0122452
0.00760979
0.000591801
-0.00955085
-0.0236275
-0.0424105
-0.066452
-0.0955477
0.0110319
0.0105953
0.0109015
0.011283
0.0116661
0.0119728
0.0121218
0.0120189
0.0115451
0.0105426
0.00880129
0.00604527
0.00192074
-0.00401052
-0.0122667
-0.0234217
-0.0380494
-0.0566272
-0.0793892
-0.105991
0.00781146
0.00732136
0.00746045
0.00759239
0.00765074
0.0075578
0.00722541
0.00654962
0.00540218
0.00362105
0.00100077
-0.00271575
-0.00784222
-0.0147474
-0.023843
-0.0355537
-0.0502651
-0.0682459
-0.0895449
-0.11376
0.00445667
0.00392946
0.00391545
0.00381676
0.00357006
0.0030985
0.00231195
0.00110342
-0.000656377
-0.00312524
-0.00649512
-0.0109959
-0.0168956
-0.0244933
-0.0341039
-0.0460284
-0.0605098
-0.0776744
-0.0974653
-0.11946
0.00104249
0.000492267
0.000336873
2.57022e-05
-0.000502823
-0.00132397
-0.00252668
-0.00421597
-0.00651632
-0.00957509
-0.0135651
-0.018685
-0.0251563
-0.0332136
-0.0430886
-0.054984
-0.0690379
-0.0852817
-0.103598
-0.123564
-0.00235808
-0.00291934
-0.00320465
-0.00370968
-0.0044943
-0.00563125
-0.00720593
-0.00931808
-0.0120834
-0.015635
-0.0201237
-0.0257162
-0.0325897
-0.0409223
-0.0508769
-0.06258
-0.0760939
-0.0913872
-0.108308
-0.126447
-0.00567566
-0.00623801
-0.00664134
-0.00732089
-0.00833429
-0.00975085
-0.0116509
-0.0141266
-0.0172827
-0.0212362
-0.0261151
-0.0320555
-0.0391948
-0.0476628
-0.0575672
-0.0689765
-0.0818988
-0.0962617
-0.111894
-0.128409
-0.00884576
-0.00940129
-0.00991024
-0.0107444
-0.0119587
-0.0136182
-0.0157971
-0.018579
-0.0220566
-0.0263303
-0.0315064
-0.0376925
-0.0449918
-0.053494
-0.0632632
-0.074324
-0.0866465
-0.100131
-0.114599
-0.129687
-0.0118097
-0.0123526
-0.0129544
-0.0139232
-0.0153107
-0.0171774
-0.0195908
-0.0226256
-0.0263623
-0.0308855
-0.0362813
-0.0426326
-0.0500135
-0.0584808
-0.0680648
-0.0787578
-0.0905027
-0.103183
-0.116617
-0.13047
-0.0145152
-0.0150417
-0.0157235
-0.0168073
-0.0183414
-0.0203813
-0.0229881
-0.0262276
-0.030169
-0.0348823
-0.0404357
-0.046891
-0.0542981
-0.0626878
-0.0720643
-0.0823958
-0.0936068
-0.10557
-0.118104
-0.130904
-0.0169168
-0.0174251
-0.0181743
-0.0193541
-0.0210093
-0.023191
-0.0259539
-0.0293557
-0.0334553
-0.0383101
-0.0439727
-0.0504876
-0.0578849
-0.0661754
-0.075343
-0.0853387
-0.0960741
-0.107416
-0.119185
-0.131104
-0.0189759
-0.0194661
-0.0202703
-0.021528
-0.0232807
-0.0255753
-0.0284609
-0.0319883
-0.0362072
-0.0411643
-0.0468999
-0.0534439
-0.0608114
-0.0689972
-0.0779707
-0.0876701
-0.0979984
-0.108819
-0.119957
-0.131158
-0.0206609
-0.0211345
-0.0219818
-0.0233001
-0.0251284
-0.0275096
-0.0304885
-0.0341096
-0.0384155
-0.0434444
-0.0492265
-0.0557808
-0.0631106
-0.0711991
-0.0800048
-0.0894574
-0.0994539
-0.109857
-0.120493
-0.13113
-0.0219466
-0.0224065
-0.0232855
-0.0246483
-0.0265316
-0.0289756
-0.0320213
-0.0357087
-0.040075
-0.0451517
-0.0509619
-0.0575163
-0.06481
-0.0728179
-0.0814911
-0.0907532
-0.100498
-0.110587
-0.120851
-0.131071
-0.0228146
-0.0232647
-0.0241642
-0.025556
-0.0274752
-0.02996
-0.0330488
-0.0367784
-0.0411826
-0.0462884
-0.052114
-0.058665
-0.065931
-0.0738817
-0.0824634
-0.091596
-0.101171
-0.111051
-0.121068
-0.131014
-0.0232522
-0.0236971
-0.0246065
-0.0260125
-0.0279495
-0.0304544
-0.0335642
-0.0373144
-0.0417367
-0.0468562
-0.0526886
-0.0592369
-0.066488
-0.0744091
-0.0829441
-0.0920113
-0.101501
-0.111276
-0.121169
-0.13098
-0.0515565
-0.103292
-0.15711
-0.208605
-0.256402
-0.299181
-0.335461
-0.363915
-0.383501
-0.393516
-0.0802459
-0.123279
-0.168382
-0.211546
-0.251123
-0.286149
-0.315655
-0.338701
-0.354526
-0.362606
-0.100734
-0.137307
-0.175179
-0.21166
-0.244841
-0.273734
-0.297775
-0.31643
-0.329202
-0.335715
-0.115236
-0.146559
-0.178239
-0.208916
-0.236995
-0.261322
-0.281332
-0.296688
-0.307121
-0.312416
-0.125534
-0.152586
-0.179286
-0.204977
-0.22864
-0.249254
-0.266182
-0.27909
-0.287795
-0.292188
-0.132682
-0.156154
-0.178906
-0.200543
-0.220474
-0.237956
-0.252387
-0.263403
-0.270816
-0.274541
-0.137473
-0.15791
-0.177482
-0.19589
-0.212777
-0.227644
-0.239999
-0.249482
-0.25588
-0.259091
-0.14052
-0.158385
-0.17536
-0.191192
-0.205638
-0.218363
-0.228991
-0.237199
-0.242761
-0.245554
-0.142292
-0.157989
-0.172827
-0.186588
-0.199084
-0.210077
-0.21928
-0.226419
-0.231276
-0.233715
-0.143152
-0.157029
-0.170107
-0.182192
-0.193126
-0.202723
-0.210759
-0.217006
-0.221266
-0.223402
-0.143375
-0.155736
-0.167364
-0.178089
-0.187766
-0.196238
-0.203324
-0.208832
-0.212589
-0.214466
-0.143173
-0.154278
-0.164716
-0.174336
-0.182998
-0.190565
-0.19688
-0.201781
-0.205118
-0.206776
-0.14271
-0.152782
-0.16225
-0.170972
-0.178816
-0.185652
-0.191343
-0.195749
-0.19874
-0.200217
-0.142108
-0.151341
-0.160023
-0.168022
-0.175207
-0.181456
-0.186645
-0.190651
-0.19336
-0.194687
-0.141462
-0.150023
-0.158078
-0.165499
-0.172158
-0.177939
-0.182727
-0.186411
-0.188894
-0.1901
-0.140841
-0.148877
-0.156443
-0.16341
-0.169657
-0.175069
-0.17954
-0.18297
-0.185273
-0.186382
-0.140298
-0.147941
-0.155138
-0.161761
-0.167691
-0.17282
-0.177046
-0.180278
-0.18244
-0.183474
-0.139869
-0.147238
-0.154175
-0.160551
-0.166251
-0.17117
-0.175214
-0.178298
-0.180354
-0.181331
-0.139581
-0.146789
-0.153565
-0.159783
-0.16533
-0.170106
-0.174022
-0.177002
-0.178983
-0.179919
-0.13945
-0.146604
-0.153315
-0.159457
-0.164923
-0.169617
-0.173457
-0.176373
-0.178306
-0.179218
0.00659748
0.00461304
0.00355866
0.00317417
0.00312259
0.00321693
0.00335594
0.00348744
0.00358816
0.00364975
0.00367282
0.00366088
0.00361982
0.00355456
0.00347067
0.00337174
0.00326189
0.00314317
0.0030184
0.0028885
0.00275543
0.00261936
0.00248175
0.00234235
0.00220233
0.00206119
0.00191994
0.00177796
0.00163617
0.00149385
0.00135188
0.00120948
0.00106748
0.000925075
0.000783054
0.000640588
0.000498478
0.000355854
0.000213543
7.10865e-05
0.00664738
0.0046489
0.00358791
0.00319795
0.00314181
0.00323229
0.00336807
0.00349688
0.00359543
0.00365527
0.003677
0.00366399
0.00362214
0.00355626
0.00347192
0.00337264
0.00326256
0.00314364
0.00301875
0.00288874
0.00275561
0.00261948
0.00248184
0.00234241
0.00220238
0.00206121
0.00191997
0.00177797
0.00163619
0.00149385
0.00135189
0.00120947
0.00106749
0.000925071
0.000783062
0.000640582
0.000498485
0.000355848
0.000213544
7.10869e-05
0.00674312
0.00471876
0.00364546
0.00324499
0.00317995
0.00326282
0.00339218
0.00351567
0.0036099
0.00366628
0.00368531
0.00367019
0.00362675
0.00355964
0.00347441
0.00337445
0.00326387
0.00314458
0.00301943
0.00288922
0.00275595
0.00261972
0.00248202
0.00234253
0.00220247
0.00206127
0.00192002
0.001778
0.00163621
0.00149387
0.0013519
0.00120948
0.00106749
0.00092507
0.000783067
0.000640578
0.000498487
0.000355846
0.000213541
7.10873e-05
0.00687686
0.00481899
0.00372947
0.00331429
0.0032364
0.00330813
0.00342802
0.00354362
0.00363143
0.00368268
0.00369767
0.00367943
0.0036336
0.00356469
0.0034781
0.00337713
0.00326582
0.00314598
0.00302044
0.00288994
0.00275647
0.00262008
0.00248228
0.00234271
0.0022026
0.00206136
0.00192008
0.00177804
0.00163624
0.00149389
0.00135192
0.00120949
0.0010675
0.000925073
0.000783069
0.000640576
0.000498485
0.000355845
0.000213537
7.10878e-05
0.00703795
0.00494463
0.00383734
0.0034044
0.00331029
0.00336765
0.0034752
0.00358046
0.00365983
0.00370432
0.003714
0.00369164
0.00364265
0.00357136
0.00348298
0.00338069
0.00326839
0.00314784
0.00302177
0.00289089
0.00275715
0.00262056
0.00248262
0.00234295
0.00220277
0.00206148
0.00192016
0.0017781
0.00163628
0.00149392
0.00135194
0.0012095
0.00106751
0.000925078
0.00078307
0.000640575
0.000498482
0.000355845
0.000213533
7.10883e-05
0.00721417
0.00508981
0.00396587
0.00351348
0.00340047
0.00344063
0.0035332
0.00362584
0.00369485
0.00373102
0.00373414
0.0037067
0.00365382
0.00357959
0.003489
0.00338507
0.00327156
0.00315013
0.00302341
0.00289207
0.00275798
0.00262116
0.00248304
0.00234325
0.00220297
0.00206163
0.00192027
0.00177818
0.00163634
0.00149396
0.00135196
0.00120952
0.00106752
0.000925085
0.00078307
0.000640576
0.000498476
0.000355845
0.000213528
7.10887e-05
0.00739287
0.00524813
0.00411147
0.00363941
0.00350561
0.00352619
0.00360141
0.0036793
0.00373616
0.00376255
0.00375794
0.0037245
0.00366703
0.00358932
0.00349613
0.00339026
0.00327532
0.00315284
0.00302535
0.00289346
0.00275897
0.00262186
0.00248353
0.0023436
0.00220322
0.00206181
0.00192039
0.00177827
0.00163639
0.001494
0.00135199
0.00120954
0.00106753
0.000925093
0.000783069
0.000640576
0.00049847
0.000355844
0.000213523
7.10892e-05
0.00756186
0.00541307
0.00427025
0.00377979
0.00362417
0.00362329
0.00367912
0.00374036
0.00378339
0.00379862
0.00378519
0.0037449
0.00368216
0.00360047
0.00350429
0.00339621
0.00327962
0.00315594
0.00302758
0.00289506
0.0027601
0.00262267
0.0024841
0.00234401
0.0022035
0.00206201
0.00192053
0.00177837
0.00163646
0.00149405
0.00135202
0.00120957
0.00106754
0.000925103
0.000783068
0.000640577
0.000498462
0.000355844
0.000213518
7.10897e-05
0.00770983
0.00557817
0.0044382
0.00393208
0.00375448
0.00373079
0.00376552
0.00380841
0.00383613
0.00383895
0.00381567
0.00376772
0.0036991
0.00361296
0.00351343
0.00340287
0.00328444
0.00315942
0.00303007
0.00289684
0.00276137
0.00262358
0.00248474
0.00234446
0.00220382
0.00206224
0.00192068
0.00177849
0.00163654
0.00149411
0.00135205
0.0012096
0.00106755
0.000925114
0.000783066
0.000640579
0.000498453
0.000355844
0.000213513
7.10902e-05
0.0078262
0.00573726
0.00461133
0.00409366
0.00389476
0.00384747
0.00385973
0.00388283
0.0038939
0.00388317
0.00384912
0.00379278
0.0037177
0.00362668
0.00352347
0.00341018
0.00328973
0.00316325
0.00303281
0.00289881
0.00276276
0.00262458
0.00248544
0.00234497
0.00220416
0.00206249
0.00192085
0.00177861
0.00163662
0.00149418
0.00135209
0.00120963
0.00106756
0.000925126
0.000783064
0.000640581
0.000498443
0.000355843
0.000213508
7.10908e-05
0.0079107
0.00590438
0.00480913
0.0042844
0.00406306
0.00398868
0.00397435
0.00397366
0.00396454
0.00393732
0.0038901
0.0038235
0.00374051
0.0036435
0.00353578
0.00341916
0.00329623
0.00316794
0.00303617
0.00290122
0.00276447
0.0026258
0.0024863
0.00234558
0.00220459
0.0020628
0.00192106
0.00177877
0.00163672
0.00149425
0.00135213
0.00120967
0.00106757
0.000925141
0.000783061
0.000640584
0.000498431
0.000355842
0.000213501
7.10911e-05
0.0079306
0.00606375
0.00502583
0.0045036
0.00426092
0.00415676
0.00411176
0.00408301
0.00404983
0.00400279
0.00393972
0.00386071
0.00376817
0.0036639
0.00355073
0.00343005
0.00330411
0.00317363
0.00304025
0.00290415
0.00276655
0.00262728
0.00248734
0.00234632
0.00220511
0.00206317
0.00192132
0.00177895
0.00163684
0.00149435
0.00135219
0.00120971
0.00106759
0.000925157
0.000783061
0.000640584
0.000498421
0.000355838
0.000213495
7.10906e-05
0.00786688
0.00618751
0.00523154
0.00472374
0.00446474
0.00433224
0.00425632
0.0041986
0.00414024
0.00407233
0.00399249
0.00390031
0.00379761
0.00368563
0.00356664
0.00344165
0.00331251
0.00317969
0.0030446
0.00290726
0.00276877
0.00262886
0.00248846
0.00234712
0.00220566
0.00206357
0.00192159
0.00177915
0.00163698
0.00149444
0.00135226
0.00120975
0.00106762
0.000925172
0.000783063
0.000640584
0.000498411
0.000355833
0.000213489
7.10895e-05
0.00771455
0.00626967
0.0054207
0.00494027
0.00467092
0.00451234
0.00440592
0.0043188
0.00423455
0.004145
0.0040477
0.00394178
0.00382846
0.0037084
0.00358333
0.00345381
0.00332133
0.00318605
0.00304917
0.00291053
0.0027711
0.00263052
0.00248963
0.00234795
0.00220624
0.00206398
0.00192188
0.00177936
0.00163712
0.00149455
0.00135232
0.0012098
0.00106764
0.000925188
0.000783066
0.000640583
0.000498403
0.000355827
0.000213483
7.1088e-05
0.00747301
0.00630658
0.00558901
0.00514918
0.00487609
0.00469435
0.00455843
0.00444197
0.0043315
0.00421986
0.00410465
0.00398459
0.00386033
0.00373193
0.00360058
0.00346638
0.00333044
0.00319263
0.00305389
0.00291391
0.0027735
0.00263223
0.00249084
0.0023488
0.00220685
0.00206441
0.00192218
0.00177957
0.00163727
0.00149465
0.00135239
0.00120985
0.00106767
0.000925204
0.000783069
0.000640582
0.000498394
0.00035582
0.000213476
7.10861e-05
0.00714601
0.00629701
0.00573341
0.00534715
0.00507723
0.00487571
0.00471177
0.00456647
0.00442982
0.00429594
0.0041626
0.00402819
0.00389281
0.00375592
0.00361817
0.0034792
0.00333973
0.00319933
0.0030587
0.00291735
0.00277596
0.00263398
0.00249207
0.00234968
0.00220746
0.00206484
0.00192248
0.00177978
0.00163742
0.00149476
0.00135246
0.0012099
0.0010677
0.00092522
0.000783073
0.00064058
0.000498386
0.000355813
0.00021347
7.10842e-05
0.00674133
0.00624206
0.0058522
0.00553154
0.00527162
0.00505402
0.00486392
0.00469069
0.00452824
0.00437225
0.00422081
0.00407203
0.00392548
0.00378006
0.00363588
0.00349211
0.00334909
0.00320608
0.00306355
0.00292083
0.00277843
0.00263573
0.00249332
0.00235056
0.00220808
0.00206528
0.00192279
0.00178
0.00163757
0.00149486
0.00135253
0.00120995
0.00106773
0.000925236
0.000783078
0.000640579
0.000498378
0.000355807
0.000213464
7.10823e-05
0.00627015
0.00614496
0.00594491
0.00570043
0.00545698
0.00522707
0.00501298
0.00481305
0.00462551
0.00444784
0.00427854
0.00411554
0.00395792
0.00380405
0.00365348
0.00350495
0.00335839
0.0032128
0.00306838
0.00292428
0.00278089
0.00263748
0.00249455
0.00235144
0.0022087
0.00206572
0.0019231
0.00178022
0.00163772
0.00149497
0.00135261
0.00120999
0.00106775
0.000925253
0.000783082
0.000640578
0.000498371
0.0003558
0.000213457
7.10805e-05
0.00574646
0.00601083
0.00601229
0.00585263
0.0056314
0.00539288
0.00515717
0.00493205
0.00472043
0.00452174
0.00433507
0.00415819
0.00398974
0.00382757
0.00367075
0.00351754
0.00336752
0.00321939
0.00307311
0.00292767
0.00278331
0.0026392
0.00249577
0.0023523
0.00220931
0.00206614
0.0019234
0.00178043
0.00163787
0.00149508
0.00135268
0.00121004
0.00106778
0.000925269
0.000783086
0.000640577
0.000498364
0.000355795
0.000213452
7.1079e-05
0.00518613
0.00584627
0.00605611
0.00598757
0.00579338
0.00554971
0.00529482
0.00504628
0.00481184
0.00459306
0.00438969
0.00419943
0.00402053
0.00385035
0.00368746
0.00352973
0.00337637
0.00322577
0.00307769
0.00293095
0.00278565
0.00264087
0.00249695
0.00235313
0.00220989
0.00206656
0.00192369
0.00178064
0.00163801
0.00149518
0.00135274
0.00121009
0.00106781
0.000925285
0.000783091
0.000640577
0.000498356