/*--------------------------------*- C++ -*----------------------------------*\
| =========                 |                                                 |
| \\      /  F ield         | OpenFOAM: The Open Source CFD Toolbox           |
|  \\    /   O peration     | Version:  2312                                  |
|   \\  /    A nd           | Website:  www.openfoam.com                      |
|    \\/     M anipulation  |                                                 |
\*---------------------------------------------------------------------------*/
FoamFile
{
    version     2.0;
    format      ascii;
    arch        "LSB;label=32;scalar=64";
    class       surfaceScalarField;
    location    "0";
    object      phi;
}
// * * * * * * * * * * * * * * * * * * * * * * * * * * * * * * * * * * * * * //

dimensions      [0 3 -1 0 0 0 0];

oriented        oriented;

internalField   nonuniform List<scalar> 
6250
(
0.00527758
-0.0749391
0.0696615
0.0101406
-0.0690218
0.0641603
0.0146844
-0.064464
0.0599213
0.0189782
-0.0608796
0.0565873
0.0230719
-0.0580112
0.0539188
0.0270035
-0.0556815
0.0517514
0.0308016
-0.0537653
0.0499685
0.0344912
-0.0521722
0.0484839
0.0381003
-0.0508364
0.0472281
-0.0497113
0.046131
0.0416815
0.0048164
-0.0797543
0.00925393
-0.0734578
0.0133997
-0.068608
0.0173163
-0.0647944
0.021049
-0.0617422
0.0246317
-0.0592626
0.02809
-0.0572224
0.0314453
-0.0555265
0.0347164
-0.0541073
-0.0529197
0.0379247
0.00432481
-0.0840781
0.00830926
-0.0774408
0.0120312
-0.0723289
0.0155467
-0.0683088
0.018896
-0.0650906
0.0221085
-0.0624742
0.0252048
-0.0603183
0.0281984
-0.0585199
0.0310921
-0.0570017
-0.0557025
0.0338737
0.00380614
-0.0878839
0.00731256
-0.0809467
0.010588
-0.075604
0.0136818
-0.0714021
0.0166294
-0.0680377
0.019457
-0.0653014
0.0221833
-0.0630447
0.0248225
-0.0611592
0.0273839
-0.059564
-0.0581963
0.0298766
0.00326354
-0.091147
0.00627027
-0.0839527
0.00907924
-0.0784125
0.0117331
-0.0740554
0.0142624
-0.0705669
0.0166908
-0.0677298
0.0190357
-0.0653901
0.021312
-0.0634362
0.0235321
-0.0617854
-0.0603754
0.0257098
0.00270041
-0.0938475
0.00518845
-0.0864408
0.00751338
-0.0807373
0.00971065
-0.0762526
0.0118062
-0.0726625
0.0138202
-0.0697437
0.0157679
-0.0673383
0.0176629
-0.0653319
0.0195168
-0.0636404
-0.0622008
0.021341
0.00212002
-0.0959672
0.00407363
-0.0883939
0.00589952
-0.0825629
0.00762587
-0.0779787
0.00927327
-0.0743099
0.0108579
-0.0713285
0.0123923
-0.0688732
0.0138872
-0.0668275
0.0153517
-0.0651058
-0.0636441
0.0167942
0.001526
-0.0974934
0.00293237
-0.0898003
0.00424713
-0.0838777
0.0054906
-0.0792221
0.00667785
-0.0754971
0.00782057
-0.0724712
0.00892784
-0.0699808
0.0100075
-0.0679076
0.0110656
-0.0661647
-0.0646869
0.0121078
0.000921987
-0.0984151
0.00177194
-0.0906497
0.00256662
-0.0846719
0.00331842
-0.0799735
0.0040364
-0.0762149
0.00472774
-0.0731625
0.00539787
-0.070651
0.00605149
-0.0685614
0.00669212
-0.0668057
-0.0653181
0.00732288
0.000311969
-0.0987271
0.000599691
-0.0909372
0.000868854
-0.0849407
0.0011235
-0.0802278
0.0013667
-0.0764578
0.00160089
-0.0733964
0.00182784
-0.0708779
0.0020492
-0.0687828
0.00226605
-0.0670227
0.00247949
-0.0655317
0.00770902
-0.00770902
0.0148091
-0.00709776
0.0214364
-0.00662524
0.0276905
-0.00625214
0.0336444
-0.00595216
0.0393534
-0.00570737
0.0448604
-0.00550527
0.0501994
-0.00533713
0.0553979
-0.00519681
-0.00508025
0.0604801
0.00766355
-0.0153696
0.0147215
-0.0141516
0.0213095
-0.0132099
0.0275266
-0.012466
0.033445
-0.0118676
0.0391196
-0.0113788
0.044592
-0.0109746
0.0498953
-0.0106371
0.0550555
-0.0103538
-0.0101154
0.060094
0.00757237
-0.0229399
0.0145464
-0.0211225
0.0210564
-0.0197172
0.0272001
-0.018607
0.0330487
-0.0177136
0.0386555
-0.0169829
0.044061
-0.0163774
0.0492968
-0.01587
0.0543875
-0.0154416
-0.0150787
0.0593538
0.00743594
-0.0303739
0.0142847
-0.0279681
0.0206784
-0.0261084
0.0267132
-0.0246392
0.0324586
-0.0234565
0.0379665
-0.0224883
0.0432756
-0.0216839
0.0484155
-0.021007
0.0534081
-0.0204314
-0.0199386
0.0582711
0.00725481
-0.0376271
0.0139373
-0.034648
0.020177
-0.032346
0.0260679
-0.030528
0.0316782
-0.0290646
0.0370583
-0.027866
0.0422453
-0.0268685
0.0472666
-0.0260256
0.0521409
-0.025303
-0.0246758
0.0568809
0.00702946
-0.0446549
0.0135051
-0.0411212
0.0195534
-0.0383923
0.025266
-0.0362386
0.0307096
-0.0345062
0.035934
-0.0330883
0.0409761
-0.0319083
0.0458626
-0.0309095
0.0506103
-0.0300481
-0.0292894
0.0552267
0.00676066
-0.0514145
0.0129893
-0.0473481
0.0188089
-0.0442099
0.024308
-0.0417357
0.0295524
-0.0397485
0.0345918
-0.0381257
0.0394648
-0.0367794
0.0442018
-0.0356443
0.0488242
-0.0346684
-0.0338063
0.0533434
0.00644938
-0.0578628
0.0123918
-0.053289
0.0179451
-0.0497616
0.0231948
-0.0469835
0.0282043
-0.0447561
0.0330235
-0.0429428
0.0376931
-0.0414471
0.0422507
-0.0401997
0.0467332
-0.039149
-0.0382525
0.0511814
0.00609702
-0.0639586
0.0117151
-0.0589055
0.0169656
-0.0550108
0.0219294
-0.0519457
0.0266665
-0.0494914
0.0312233
-0.0474979
0.0356382
-0.0458604
0.0399478
-0.0445076
0.0441961
-0.0433958
-0.0425149
0.0484603
0.00570563
0.0109629
0.0158761
0.0205199
0.0249492
0.0292047
0.0333143
0.0372923
0.0411256
0.044742
0.0629033
-0.00242155
0.0647744
-0.00186901
0.066226
-0.00144947
0.0673503
-0.00112223
0.0682183
-0.000866256
0.0688851
-0.000665189
0.0693926
-0.000506026
0.0697722
-0.000378298
0.0700474
-0.000273987
0.0702357
-0.000187243
0.0703506
-0.000113959
0.0704028
-5.1295e-05
0.0704008
2.73107e-06
0.070352
4.95479e-05
0.0702624
9.02324e-05
0.0701374
0.000125633
0.0699814
0.000156442
0.0697987
0.000183246
0.0695927
0.000206548
0.00022661
0.0693667
0.0625029
-0.00482704
0.0643778
-0.00374003
0.0658402
-0.00290833
0.0669808
-0.00225952
0.0678699
-0.00175219
0.0685613
-0.00135387
0.0690957
-0.001038
0.0695031
-0.000783538
0.0698058
-0.000574724
0.0700207
-0.000400338
0.070161
-0.000252619
0.0702373
-0.000126204
0.0702587
-1.72941e-05
0.0702325
7.69169e-05
0.0701652
0.000158605
0.0700623
0.000229523
0.0699286
0.000291122
0.0697682
0.000344624
0.0695847
0.000391061
0.000430875
0.0693813
0.0617391
-0.00720926
0.0636164
-0.00561366
0.065095
-0.00438351
0.0662643
-0.00342545
0.0671927
-0.00267765
0.0679314
-0.00209008
0.0685176
-0.00162204
0.0689782
-0.00124217
0.0693331
-0.000928006
0.0695983
-0.000664074
0.0697868
-0.000439818
0.0699096
-0.000247847
0.0699761
-8.27463e-05
0.0699943
5.9651e-05
0.069971
0.000182693
0.0699121
0.000289146
0.0698227
0.000381332
0.0697068
0.000461207
0.0695683
0.000530422
0.000589739
0.0694101
0.0606124
-0.00954723
0.0624903
-0.00748788
0.0639926
-0.00588207
0.0652067
-0.00463608
0.066197
-0.00366486
0.0670084
-0.00289886
0.0676715
-0.00228292
0.0682085
-0.00177737
0.0686375
-0.00135536
0.0689737
-0.000998914
0.0692307
-0.000695587
0.0694203
-0.00043629
0.0695525
-0.000213998
0.0696361
-2.30422e-05
0.0696783
0.000141269
0.0696852
0.000282877
0.0696621
0.000405104
0.0696133
0.000510756
0.0695424
0.000602184
0.000680579
0.0694521
0.0591468
-0.0118098
0.0610193
-0.00935651
0.0625545
-0.0074136
0.0638348
-0.0059128
0.0649128
-0.00474004
0.0658209
-0.00380453
0.0665809
-0.00304096
0.0672114
-0.00240628
0.06773
-0.00187256
0.068153
-0.00142075
0.0684952
-0.00103682
0.0687696
-0.000709765
0.0689869
-0.000430581
0.0691564
-0.000191792
0.0692853
1.28659e-05
0.0693801
0.000188654
0.0694456
0.000339989
0.0694863
0.000470572
0.0695057
0.000583503
0.000680497
0.0695062
0.057372
-0.0139521
0.0592313
-0.0112122
0.0608187
-0.00899737
0.0621942
-0.00728504
0.063384
-0.00592692
0.0644034
-0.00482157
0.0652688
-0.00390445
0.0659996
-0.00313554
0.0666162
-0.00248778
0.0671373
-0.00194072
0.0675792
-0.00147779
0.0679556
-0.00108522
0.0682773
-0.000751529
0.0685533
-0.00046711
0.0687907
-0.000223993
0.0689955
-1.55636e-05
0.0691723
0.000163669
0.0693251
0.000318261
0.0694573
0.000451988
0.000567108
0.0695711
0.0553203
-0.0159262
0.0571701
-0.0130585
0.0588495
-0.0106738
0.0603481
-0.00878069
0.0616549
-0.00723151
0.0627789
-0.00594375
0.0637423
-0.00486645
0.0645716
-0.00396364
0.065291
-0.00320637
0.0659212
-0.00257016
0.0664784
-0.00203432
0.0669753
-0.0015816
0.0674219
-0.00119773
0.0678262
-0.000871023
0.0681944
-0.000591918
0.0685317
-0.000352589
0.0688422
-0.00014663
0.0691295
3.12106e-05
0.0693966
0.000185263
0.000318288
0.0696457
0.0530111
-0.0177535
0.0549071
-0.0149516
0.0567261
-0.01249
0.0583369
-0.0103891
0.0597278
-0.00862001
0.0609291
-0.00714321
0.0619783
-0.00591423
0.0629075
-0.00489159
0.0637411
-0.00403887
0.0644972
-0.0033254
0.0651896
-0.00272596
0.0658288
-0.00222003
0.0664227
-0.00179105
0.0669778
-0.00142562
0.0674993
-0.00111292
0.0679913
-0.000844199
0.0684573
-0.000612369
0.0689006
-0.000411679
0.0693238
-0.00023746
-8.65788e-05
0.069729
0.0503908
-0.019682
0.0525017
-0.0170598
0.0544347
-0.014421
0.0560841
-0.0120367
0.0575149
-0.0100496
0.0587852
-0.00841251
0.0599336
-0.00706179
0.0609856
-0.0059429
0.0619589
-0.00501172
0.0628668
-0.00423289
0.0637194
-0.00357813
0.0645244
-0.0030248
0.0652883
-0.00255469
0.0660161
-0.00215319
0.0667119
-0.00180857
0.0673792
-0.0015114
0.068021
-0.00125413
0.0686401
-0.00103068
0.069239
-0.000836178
-0.000667195
0.0698198
0.0468806
-0.0218194
0.0489829
-0.0191612
0.0509938
-0.0164307
0.0528314
-0.0138732
0.0544938
-0.0117108
0.0560056
-0.00992338
0.0573922
-0.00844756
0.0586746
-0.00722463
0.05987
-0.00620656
0.0609925
-0.00535482
0.0620534
-0.00463852
0.0630618
-0.00403286
0.0640254
-0.00351791
0.0649502
-0.00307768
0.0658412
-0.00269932
0.0667026
-0.00237259
0.0675379
-0.00208928
0.0683503
-0.00184287
0.0691425
-0.00162818
-0.00144124
0.0699167
0.0915217
-0.0195091
-0.0938313
0.0896468
-0.0172864
0.0883663
-0.0151502
0.0876313
-0.0131379
0.0872599
-0.0113394
0.0871149
-0.0097783
0.0871085
-0.00844106
0.0871854
-0.00730137
0.0873101
-0.00633118
0.08746
-0.00550454
0.0876203
-0.0047987
0.0877818
-0.00419428
0.0879388
-0.00367494
0.0880883
-0.0032271
0.0882285
-0.00283951
0.0883588
-0.00250292
0.0884792
-0.00220974
0.08859
-0.00195377
0.0886918
-0.0017299
-0.00153391
0.0887844
0.0937444
-0.0168339
-0.09642
0.091783
-0.0153263
0.0903787
-0.0137463
0.0894297
-0.0121894
0.088821
-0.0107308
0.0884522
-0.00940971
0.0882482
-0.00823727
0.0881556
-0.00720883
0.0881368
-0.00631244
0.0881658
-0.0055336
0.0882247
-0.00485761
0.0883011
-0.00427071
0.0883867
-0.00376055
0.0884759
-0.00331634
0.0885651
-0.00292876
0.0886519
-0.0025899
0.0887352
-0.00229306
0.0888139
-0.00203261
0.0888877
-0.00180379
-0.00160261
0.0889564
0.0952521
-0.0143835
-0.0977036
0.093363
-0.0134386
0.0919355
-0.0123199
0.0908884
-0.0111431
0.090142
-0.00998532
0.0896246
-0.00889298
0.0892767
-0.00788988
0.089052
-0.00698455
0.0889156
-0.00617643
0.0888418
-0.00546005
0.0888116
-0.00482763
0.0888112
-0.00427058
0.0888309
-0.00378039
0.0888634
-0.00334909
0.0889039
-0.00296944
0.0889488
-0.00263499
0.0889956
-0.00234013
0.0890427
-0.00207995
0.0890889
-0.00185024
-0.00164734
0.0891335
0.096197
-0.0123018
-0.0982798
0.0944817
-0.0117254
0.0931123
-0.0109516
0.0920462
-0.0100783
0.0912344
-0.00917457
0.0906277
-0.00828726
0.090182
-0.00744496
0.0898601
-0.00666328
0.089632
-0.00594888
0.0894742
-0.00530273
0.0893686
-0.00472244
0.0893014
-0.00420373
0.0892622
-0.00374149
0.0892431
-0.00333033
0.0892384
-0.00296502
0.0892437
-0.0026406
0.0892558
-0.00235258
0.0892724
-0.00209689
0.0892918
-0.00186991
-0.00166847
0.0893128
0.0967734
-0.0105504
-0.0985262
0.0952555
-0.0102092
0.0939856
-0.00968324
0.0929498
-0.00904387
0.0921217
-0.00834778
0.09147
-0.00763672
0.0909637
-0.0069396
0.0905745
-0.00627487
0.0902782
-0.00565319
0.0900545
-0.00507967
0.0898873
-0.00455576
0.0897637
-0.00408051
0.0896733
-0.00365157
0.0896084
-0.00326581
0.0895628
-0.00291976
0.0895317
-0.0026099
0.0895115
-0.00233279
0.0894994
-0.00208523
0.0894933
-0.00186423
-0.00166707
0.0894915
0.0971147
-0.00906474
-0.0986015
0.0957814
-0.00887809
0.094625
-0.00852846
0.0936459
-0.00806644
0.0928327
-0.00753593
0.0921671
-0.00697228
0.0916284
-0.00640192
0.0911962
-0.00584351
0.0908517
-0.00530941
0.0905784
-0.00480709
0.0903626
-0.0043405
0.0901926
-0.00391107
0.0900591
-0.00351856
0.0899545
-0.00316165
0.0898726
-0.00283839
0.0898088
-0.00254649
0.0897591
-0.00228351
0.0897204
-0.00204702
0.0896904
-0.00183468
-0.00164429
0.0896673
0.0973013
-0.00779325
-0.098574
0.096131
-0.00771018
0.095087
-0.00748635
0.0941764
-0.00715752
0.0933964
-0.0067574
0.0927375
-0.00631466
0.0921868
-0.00585234
0.0917303
-0.0053879
0.091354
-0.0049339
0.091045
-0.00449886
0.090792
-0.00408815
0.0905851
-0.00370478
0.090416
-0.00335
0.0902777
-0.0030239
0.0901645
-0.00272572
0.0900718
-0.00245421
0.0899955
-0.0022078
0.0899327
-0.00198477
0.0898808
-0.00178335
-0.00160178
0.0898378
0.0973844
-0.00669692
-0.0984823
0.0963549
-0.00668357
0.0954158
-0.00654916
0.0945766
-0.00631993
0.0938391
-0.00602139
0.0931998
-0.00567658
0.0926513
-0.00530489
0.0921843
-0.00492188
0.091789
-0.00453947
0.0914557
-0.00416634
0.0911754
-0.00380853
0.0909399
-0.00346994
0.0907421
-0.00315284
0.0905759
-0.00285828
0.0904361
-0.00258644
0.0903182
-0.00233688
0.0902186
-0.00210874
0.0901342
-0.0019009
0.0900624
-0.00171213
-0.0015411
0.0900012
0.0973977
-0.00574544
-0.0983512
0.0964893
-0.00577782
0.0956451
-0.0057068
0.0948751
-0.00555157
0.0941839
-0.00533169
0.0935715
-0.00506539
0.0930343
-0.00476877
0.0925667
-0.00445531
0.0921621
-0.0041358
0.0918135
-0.00381856
0.091514
-0.00350974
0.091257
-0.00321367
0.0910367
-0.00293318
0.0908477
-0.00267
0.0906856
-0.00242494
0.0905463
-0.00219817
0.0904264
-0.00198942
0.0903229
-0.00179808
0.0902334
-0.00162331
-0.00146415
0.0901559
0.0973654
-0.00491431
-0.0981984
0.0965603
-0.00497553
0.0958003
-0.00494855
0.095095
-0.00484783
0.0944502
-0.0046883
0.0938681
-0.00448447
0.0933477
-0.00424949
0.0928862
-0.00399478
0.0924794
-0.00372987
0.0921224
-0.00346239
0.0918101
-0.00319825
0.0915375
-0.00294184
0.0912999
-0.00269628
0.0910928
-0.00246364
0.0909124
-0.00224517
0.0907551
-0.0020415
0.0906177
-0.00185274
0.0904977
-0.00167867
0.0903926
-0.00151883
-0.00137259
0.0903004
0.0973041
-0.00418381
-0.0980364
0.0965873
-0.00426129
0.095901
-0.00426404
0.0952545
-0.00420281
0.0946541
-0.00408922
0.0941031
-0.0039347
0.0936024
-0.00374993
0.0931511
-0.00354448
0.0927469
-0.00332654
0.0923865
-0.00310293
0.0920665
-0.00287908
0.0917831
-0.00265922
0.0915325
-0.0024465
0.0913113
-0.00224315
0.0911161
-0.00205067
0.0909438
-0.00186994
0.0907918
-0.0017014
0.0906575
-0.00154512
0.0905388
-0.00140088
-0.00126829
0.0904339
0.0972267
-0.00353732
-0.0978749
0.0965845
-0.00362185
0.0959623
-0.00364331
0.0953681
-0.00361006
0.0948086
-0.00353098
0.0942879
-0.00341511
0.0938079
-0.00327104
0.0933691
-0.00310665
0.0929705
-0.00292891
0.0926103
-0.00274371
0.0922863
-0.00255594
0.0919958
-0.0023695
0.0917358
-0.00218738
0.0915038
-0.00201183
0.0912968
-0.00184444
0.0911124
-0.00168624
0.0909481
-0.00153784
0.0908018
-0.0013995
0.0906714
-0.00127123
-0.00115285
0.0905553
0.0971421
-0.00296063
-0.0977207
0.0965631
-0.00304515
0.0959955
-0.00307722
0.0954472
-0.00306304
0.0949245
-0.00300952
0.0944319
-0.00292369
0.0939723
-0.00281244
0.0935468
-0.0026822
0.0931557
-0.00253874
0.0927981
-0.0023871
0.0924728
-0.00223152
0.0921779
-0.00207548
0.0919114
-0.00192173
0.0916712
-0.0017724
0.091455
-0.00162905
0.0912608
-0.00149276
0.0910864
-0.00136425
0.09093
-0.00124388
0.0907898
-0.0011318
-0.00102794
0.0906642
0.0970576
-0.00244124
-0.0975786
0.096531
-0.00252076
0.0960097
-0.00255719
0.0955007
-0.00255529
0.0950103
-0.00252028
0.0945432
-0.00245765
0.0941025
-0.00237282
0.0936903
-0.00227094
0.0933073
-0.00215675
0.0929537
-0.00203443
0.0926288
-0.00190757
0.0923316
-0.00177917
0.0920607
-0.00165168
0.0918145
-0.00152701
0.0915913
-0.00140661
0.0913893
-0.00129154
0.0912068
-0.00118251
0.0910421
-0.00107996
0.0908936
-0.000984105
-0.000894995
0.09076
0.0969781
-0.0019685
-0.0974523
0.0964946
-0.00203923
0.0960116
-0.00207543
0.0955357
-0.00208058
0.0950729
-0.00205863
0.094628
-0.00201377
0.0942044
-0.00195021
0.0938044
-0.001872
0.0934296
-0.0017829
0.0930806
-0.0016863
0.0927572
-0.00158516
0.0924591
-0.00148198
0.0921854
-0.00137882
0.0919349
-0.00127735
0.0917063
-0.00117885
0.0914983
-0.00108428
0.0913094
-0.000994308
0.091138
-0.000909377
0.0909827
-0.000829731
-0.000755456
0.0908425
0.0969074
-0.00153287
-0.0973443
0.0964584
-0.00159213
0.0960064
-0.00162463
0.0955576
-0.0016329
0.0951178
-0.00161984
0.0946916
-0.00158856
0.0942826
-0.00154222
0.0938935
-0.00148391
0.0935262
-0.00141653
0.0931817
-0.00134271
0.0928604
-0.00126478
0.0925623
-0.00118474
0.0922869
-0.00110427
0.0920334
-0.00102472
0.0918009
-0.000947167
0.0915883
-0.000872416
0.0913943
-0.000801056
0.0912176
-0.000733484
0.091057
-0.000669943
-0.000610549
0.0909114
0.0968481
-0.00112587
-0.0972563
0.0964259
-0.0011717
0.0959982
-0.00119801
0.0955707
-0.00120652
0.0951491
-0.00119923
0.0947379
-0.00117836
0.0943409
-0.00114616
0.0939609
-0.00110486
0.0936
-0.00105656
0.0932596
-0.0010032
0.0929404
-0.000946486
0.0926428
-0.000887928
0.0923664
-0.000828784
0.092111
-0.000770087
0.0918757
-0.000712663
0.0916596
-0.000657148
0.0914619
-0.00060401
0.0912812
-0.000553574
0.0911164
-0.000506041
-0.000461512
0.0909667
0.0968023
-0.000739657
-0.0971897
0.0963996
-0.000770764
0.0959896
-0.000789166
0.095578
-0.000795875
0.0951699
-0.000792172
0.0947701
-0.000779453
0.0943822
-0.000759174
0.0940092
-0.000732773
0.0936534
-0.000701622
0.0933163
-0.000666987
0.092999
-0.000630005
0.0927019
-0.000591667
0.0924251
-0.000552816
0.0921684
-0.000514148
0.0919312
-0.000476223
0.0917128
-0.000439478
0.0915123
-0.000404235
0.0913287
-0.000370724
0.0911609
-0.000339092
-0.000309419
0.0910082
0.0967712
-0.000366945
-0.097145
0.0963812
-0.000382522
0.0959829
-0.000391959
0.0955817
-0.000395613
0.0951827
-0.000394092
0.0947904
-0.000388077
0.0944086
-0.000378282
0.0940404
-0.000365413
0.093688
-0.000350146
0.0933533
-0.000333108
0.0930373
-0.000314862
0.0927408
-0.000295901
0.0924638
-0.000276647
0.0922063
-0.000257449
0.0919679
-0.00023859
0.091748
-0.000220292
0.0915458
-0.000202723
0.0913603
-0.000186005
0.0911906
-0.000170214
-0.00015538
0.0910359
0.0967556
-0.0971237
0.0963717
0.0959793
0.0955832
0.0951887
0.0948002
0.0944215
0.0940556
0.0937051
0.0933716
0.0930563
0.09276
0.092483
0.0922252
0.0919862
0.0917656
0.0915625
0.0913761
0.0912054
0.0910498
0.0958771
0.00250282
-0.0959005
0.095811
0.00738878
0.095701
0.0122173
0.095545
0.0169494
0.0953386
0.021546
0.0950758
0.025971
0.0947516
0.0301989
0.0943757
0.0342478
0.0940265
0.0382726
0.041875
0.0936457
0.00247081
-0.093614
0.093745
0.00728881
0.0939155
0.0120459
0.0941608
0.0167028
0.0944805
0.0212246
0.0948612
0.0255883
0.0952625
0.0297958
0.0956164
0.0338924
0.0959876
0.0379
0.0414411
0.0918199
0.00240023
-0.0917496
0.0920314
0.00707647
0.0923814
0.0116948
0.0928609
0.0162218
0.09345
0.0206337
0.094115
0.0249215
0.0948199
0.0290894
0.0955822
0.0331283
0.0965681
0.0369123
0.040303
0.0902975
0.00230549
-0.0902031
0.0905778
0.00679538
0.091034
0.0112376
0.0916478
0.0156067
0.092394
0.0198861
0.09325
0.0240642
0.0942195
0.0281185
0.0953616
0.0319854
0.096746
0.0355268
0.0387674
0.0890098
0.00219674
-0.0889014
0.0893301
0.00647431
0.0898505
0.0107163
0.0905535
0.0149028
0.0914228
0.0190159
0.0924547
0.0230313
0.0936693
0.0269029
0.0951003
0.030553
0.0967399
0.0338859
0.0369791
0.0879141
0.00207922
-0.087797
0.0882605
0.0061273
0.088827
0.0101492
0.0896026
0.0141266
0.0905811
0.0180367
0.0917673
0.0218444
0.0931743
0.0254952
0.0948051
0.0289214
0.0966257
0.0320643
0.0350011
0.0869813
0.001955
-0.0868575
0.0873484
0.0057597
0.0879537
0.00954339
0.0887925
0.0132874
0.0898642
0.0169646
0.0911726
0.0205353
0.0927191
0.0239478
0.0944897
0.0271497
0.0964481
0.0301045
0.0328723
0.0861888
0.0018248
-0.0860589
0.0865742
0.00537384
0.0872138
0.00890363
0.0881063
0.0123946
0.0892525
0.0158179
0.0906522
0.0191349
0.0922981
0.0223009
0.0941701
0.0252764
0.0962363
0.0280365
0.0306233
0.085517
0.00168907
-0.0853816
0.0859191
0.00497143
0.0865882
0.00823444
0.0875245
0.0114581
0.0887277
0.0146143
0.0901939
0.0176679
0.0919112
0.0205823
0.0938589
0.023327
0.0960099
0.0258834
0.0282787
0.0849489
0.00154842
-0.0848084
0.0853656
0.00455466
0.0860593
0.00754079
0.08703
0.0104872
0.0882759
0.0133679
0.0897902
0.0161526
0.0915597
0.0188115
0.0935648
0.0213205
0.095782
0.0236644
0.0258594
0.0844696
0.00140348
-0.0843247
0.0848986
0.00412576
0.085612
0.00682739
0.0866092
0.00948981
0.0878866
0.0120899
0.0894363
0.014602
0.0912445
0.0170018
0.0932931
0.0192701
0.0955617
0.0213939
0.0233817
0.0840665
0.00125496
-0.0839179
0.0845054
0.00368689
0.0852344
0.00609841
0.0862516
0.00847225
0.0875525
0.0107884
0.0891281
0.0130253
0.0909652
0.0151634
0.0930471
0.0171867
0.095355
0.0190841
0.0208591
0.0837292
0.00110347
-0.0835777
0.0841759
0.00324018
0.0849168
0.00535732
0.0859493
0.00743946
0.0872676
0.00946935
0.0888626
0.0114293
0.0907214
0.0133033
0.0928285
0.0150781
0.0951664
0.0167443
0.0183024
0.0834493
0.000949634
-0.0832955
0.0839019
0.00278727
0.084652
0.00460694
0.0856959
0.00639504
0.0870273
0.00813718
0.0886369
0.00981879
0.090512
0.0114269
0.0926381
0.0129507
0.0949986
0.0143822
0.0157202
0.0832198
0.00079394
-0.0830642
0.0836771
0.00232962
0.0844342
0.00384942
0.0854868
0.00534188
0.0868281
0.00679506
0.0884487
0.00819733
0.0903361
0.00953826
0.0924763
0.0108092
0.0948535
0.0120036
0.0131194
0.0830355
0.000636841
-0.0828787
0.0834964
0.00186829
0.0842588
0.00308646
0.0853181
0.00428199
0.086667
0.00544541
0.0882958
0.00656762
0.0901924
0.00764054
0.092343
0.00865745
0.0947322
0.00961312
0.0105054
0.0828924
0.000478661
-0.0827345
0.083356
0.00140413
0.0841226
0.00231926
0.0851871
0.00321688
0.0865417
0.00408993
0.0881769
0.00493163
0.0900802
0.00573607
0.0922382
0.00649831
0.0946355
0.00721449
0.00788278
0.0827873
0.000319663
-0.0826287
0.083253
0.000937718
0.084023
0.00154867
0.0850916
0.00214766
0.0864507
0.00272989
0.0880906
0.0032909
0.0899987
0.00382676
0.0921617
0.00433427
0.094564
0.00481085
0.0052553
0.0827179
0.00016006
-0.0825587
0.0831855
0.000469521
0.0839581
0.000775436
0.08503
0.00107515
0.0863927
0.00136631
0.088036
0.00164665
0.0899474
0.00191422
0.0921131
0.00216741
0.0945178
0.00240497
0.00262629
0.0826827
-0.0825231
0.0831519
0.0839269
0.0850016
0.0863674
0.0880135
0.0899271
0.0920939
0.0944982
0.0380648
0.0498028
-0.0462265
-0.0416411
0.0344596
0.0509228
-0.0473203
0.0307757
0.052255
-0.0485725
0.0269824
0.0538453
-0.0500537
0.0230554
0.0557592
-0.0518337
0.0189654
0.0580873
-0.0539987
0.0146751
0.0609547
-0.0566657
0.0101342
0.0645391
-0.0599997
0.00527457
0.0690989
-0.0642404
0.0750205
-0.069747
0.0346591
0.0529964
-0.0378545
0.0313972
0.0541826
0.0280506
0.0556004
0.0245992
0.0572949
0.021023
0.0593338
0.0172959
0.0618125
0.0133844
0.0648642
0.00924356
0.0686785
0.00481116
0.0735301
0.0798313
0.0310229
0.0557663
-0.0337931
0.0281391
0.0570658
0.0251552
0.058584
0.022067
0.0603821
0.0188622
0.0625377
0.0155197
0.0651537
0.0120109
0.0683722
0.00829528
0.0723932
0.00431797
0.0775075
0.084149
0.0273079
0.0582492
-0.0297907
0.0247561
0.0596177
0.0221264
0.0612135
0.0194086
0.0630992
0.0165894
0.0653561
0.0136497
0.0680926
0.0105636
0.0714576
0.00729589
0.0756607
0.00379776
0.0810058
0.087947
0.0234518
0.0604182
-0.0256204
0.0212408
0.0618291
0.0189736
0.0634807
0.0166372
0.0654351
0.0142177
0.0677753
0.0116967
0.070613
0.00905165
0.0741023
0.00625137
0.0784606
0.00325402
0.0840032
0.091201
0.0194334
0.0622343
-0.0212491
0.0175884
0.0636747
0.0157021
0.065367
0.0137629
0.067374
0.0117579
0.0697799
0.00967133
0.0726993
0.00748331
0.0762902
0.00516797
0.0807763
0.00268998
0.0864817
0.0938914
0.0152663
0.0636688
-0.0167004
0.0138103
0.0651312
0.0123238
0.0668534
0.010798
0.0688996
0.00922248
0.0713554
0.00758431
0.0743374
0.00586775
0.078007
0.0040519
0.0825923
0.00210902
0.088425
0.0960007
0.0109787
0.0647032
-0.0120128
0.00992877
0.0661814
0.00885755
0.0679246
0.00775891
0.0699982
0.00662533
0.072489
0.00544762
0.0755153
0.00421413
0.0792408
0.00290993
0.0838973
0.00151461
0.089821
0.0975158
0.00660422
0.0653262
-0.00722707
0.00597158
0.066814
0.00532641
0.0685699
0.00466496
0.0706597
0.00398286
0.0731713
0.00327449
0.076224
0.00253297
0.0799829
0.001749
0.0846817
0.000910405
0.0906602
0.0984264
0.0021776
-0.00238321
0.00196869
0.00175579
0.00153758
0.00131264
0.00107918
0.000834852
0.000576595
0.000300267
0.0555378
0.0050994
-0.0606372
0.0503178
0.00521453
0.0449625
0.00535376
0.0394401
0.00552103
0.0337164
0.00572243
0.0277483
0.00596672
0.0214804
0.00626639
0.0148391
0.00663936
0.00772499
0.00711169
0.00772215
0.05519
0.0101527
-0.0602464
0.0500097
0.0103888
0.0446908
0.0106701
0.0392037
0.0110058
0.033515
0.0114085
0.0275828
0.0118961
0.0213522
0.0124936
0.0147502
0.0132371
0.00767801
0.0141789
0.0153978
0.0545125
0.0151329
-0.0594954
0.0494034
0.0154926
0.0441533
0.015918
0.0387342
0.0164229
0.0331143
0.0170262
0.0272529
0.0177551
0.0210964
0.0186472
0.0145732
0.0197567
0.00758568
0.0211622
0.0229815
0.0535197
0.0200078
-0.058397
0.0485108
0.0204964
0.0433585
0.0210686
0.0380373
0.0217423
0.0325177
0.0225439
0.0267608
0.0235097
0.0207145
0.0246908
0.0143088
0.026159
0.00744787
0.0280192
0.0304274
0.0522356
0.0247573
-0.0569875
0.0473479
0.0253801
0.0423161
0.0260986
0.037119
0.0269378
0.0317291
0.0279319
0.026109
0.0291277
0.0202081
0.0305891
0.013958
0.0324061
0.00726497
0.0347087
0.0376908
0.0506858
0.0293807
-0.0553109
0.0459273
0.0301346
0.0410329
0.0309917
0.0359828
0.0319864
0.0307507
0.0331626
0.0252992
0.0345773
0.0195787
0.0363074
0.0135219
0.03846
0.00703767
0.0411898
0.044727
0.0488786
0.0339045
-0.0534041
0.0442485
0.0347618
0.0395059
0.0357329
0.0346272
0.0368637
0.0295823
0.038206
0.0243325
0.0398255
0.0188275
0.0418104
0.0130018
0.0442836
0.00676665
0.0474225
0.0514926
0.0467657
0.0383552
-0.0512175
0.0422778
0.0392464
0.0377173
0.0402922
0.0330445
0.041535
0.0282225
0.0430267
0.0232098
0.0448367
0.0179568
0.0470618
0.0123994
0.0498388
0.00645296
0.053367
0.0579448
0.0442049
0.0426192
-0.0484704
0.0399546
0.0434936
0.0356448
0.0446001
0.0312295
0.0459485
0.0266724
0.0475823
0.0219348
0.0495729
0.0169699
0.0520251
0.0117177
0.0550891
0.00609819
0.0589851
0.0640423
0.0411083
-0.0447183
0.0372778
0.0333036
0.0291966
0.0249435
0.0205158
0.0158731
0.0109607
0.00570426
0.070522
0.000188689
0.0706729
-0.000153405
0.0708007
-0.000129776
0.0709019
-0.000103127
0.0709731
-7.30853e-05
0.0710104
-3.90499e-05
0.0710089
-2.19334e-07
0.0709628
4.43944e-05
0.0708651
9.60041e-05
0.0707073
0.000156156
0.0704786
0.000226922
0.0701655
0.000311212
0.0697503
0.000413181
0.0692093
0.000538713
0.068511
0.000695772
0.0676129
0.000894732
0.0664605
0.00114886
0.0649822
0.001474
0.0630867
0.0018916
0.00244208
0.0705129
0.000383717
0.0706402
-0.000284915
0.0707442
-0.00023739
0.0708218
-0.000184093
0.0708696
-0.000124134
0.0708835
-5.61487e-05
0.0708586
2.15902e-05
0.0707887
0.000111144
0.0706665
0.00021497
0.0704833
0.00033611
0.0702281
0.000478537
0.0698877
0.000647736
0.069445
0.000851549
0.0688773
0.00110128
0.0681545
0.00141268
0.067236
0.00180695
0.0660674
0.00231035
0.0645787
0.00295593
0.0626796
0.00378484
0.00486917
0.0704952
0.000597223
0.0705749
-0.000368041
0.0706314
-0.000296715
0.0706618
-0.000217261
0.070663
-0.000127992
0.0706308
-2.65712e-05
0.07056
8.98631e-05
0.0704439
0.000224619
0.0702748
0.000381512
0.0700432
0.000565073
0.0697379
0.000780981
0.0693456
0.00103681
0.0688504
0.00134325
0.0682315
0.0017158
0.0674623
0.00217711
0.066505
0.00275832
0.0653088
0.00350072
0.0638048
0.004454
0.061904
0.00568054
0.00727258
0.0704681
0.000837764
0.0704758
-0.000379051
0.0704604
-0.00028422
0.0704199
-0.000179432
0.0703513
-6.20702e-05
0.0702507
7.1535e-05
0.0701124
0.000225692
0.0699293
0.000405217
0.0696928
0.000615495
0.0693926
0.000862698
0.0690166
0.0011542
0.068551
0.00149932
0.0679801
0.00191064
0.0672856
0.00240628
0.0664446
0.00301306
0.0654268
0.00377097
0.0641869
0.00473476
0.0626608
0.00597484
0.0607606
0.00757635
0.00963118
0.0704312
0.00111545
0.0703418
-0.000292511
0.0702297
-0.000174573
0.0700941
-4.61135e-05
0.0699327
9.70798e-05
0.0697415
0.000260469
0.0695149
0.000450127
0.0692454
0.000672612
0.0689236
0.000935116
0.0685383
0.00124574
0.0680762
0.00161387
0.067522
0.00205079
0.0668589
0.00257069
0.0660687
0.00319264
0.0651328
0.00394482
0.0640286
0.00486996
0.0627245
0.00603409
0.0611671
0.00752753
0.0592738
0.00946558
0.0119137
0.0703846
0.00143972
0.0701722
-8.29946e-05
0.0699378
5.72965e-05
0.0696824
0.00020686
0.0694048
0.000372431
0.0691012
0.000561959
0.0687657
0.000783524
0.0683907
0.00104548
0.0679668
0.00135689
0.0674824
0.001728
0.0669232
0.00217069
0.0662725
0.00269895
0.0655107
0.00332948
0.0646171
0.00408291
0.0635716
0.00498614
0.0623579
0.00607964
0.0609602
0.00742722
0.0593526
0.00913108
0.0574747
0.0113403
0.0140738
0.070329
0.00182005
0.0699664
0.000277268
0.0695833
0.000438543
0.0691838
0.000604564
0.068767
0.000787481
0.0683288
0.000998453
0.0678634
0.0012474
0.0673632
0.00154411
0.0668193
0.00189919
0.0662208
0.00232487
0.0655542
0.00283567
0.0648023
0.00344896
0.0639441
0.00418552
0.0629545
0.00506977
0.0618069
0.00613098
0.0604782
0.00740463
0.0589598
0.00894235
0.0572621
0.0108255
0.055396
0.0132034
0.0160633
0.0702679
0.0022613
0.0697243
0.000818489
0.0691654
0.000995348
0.0685986
0.00116939
0.0680212
0.001363
0.0674274
0.00159038
0.0668108
0.00186227
0.0661642
0.002189
0.0654796
0.00258203
0.0647478
0.00305497
0.0639573
0.0036244
0.0630935
0.00431078
0.0621375
0.00513926
0.0610644
0.00614059
0.0598415
0.00735084
0.0584315
0.00881207
0.056803
0.0105678
0.054968
0.0126577
0.0530586
0.0151106
0.0179013
0.070211
0.00275993
0.0694428
0.0015851
0.0686823
0.00175444
0.0679295
0.00192087
0.0671737
0.00211751
0.0664058
0.00235706
0.0656182
0.00264869
0.0648041
0.00300207
0.0639563
0.00342877
0.0630671
0.00394311
0.0621275
0.00456298
0.0611265
0.00531074
0.0600502
0.00621442
0.05888
0.00730905
0.0575904
0.00863896
0.056142
0.010258
0.0544772
0.0122307
0.0525305
0.0146025
0.0504085
0.0172302
0.0198364
0.070187
0.00328229
0.0691073
0.00266298
0.0681304
0.00272976
0.0671806
0.00286924