/*--------------------------------*- C++ -*----------------------------------*\
| =========                 |                                                 |
| \\      /  F ield         | OpenFOAM: The Open Source CFD Toolbox           |
|  \\    /   O peration     | Version:  2312                                  |
|   \\  /    A nd           | Website:  www.openfoam.com                      |
|    \\/     M anipulation  |                                                 |
\*---------------------------------------------------------------------------*/
FoamFile
{
    version     2.0;
    format      ascii;
    arch        "LSB;label=32;scalar=64";
    class       volVectorField;
    location    "0";
    object      U;
}
// * * * * * * * * * * * * * * * * * * * * * * * * * * * * * * * * * * * * * //

dimensions      [0 1 -1 0 0 0 0];

internalField   nonuniform List<vector> 
3200
(
(1.10773 -0.933547 5.61828e-20)
(1.09588 -0.778017 -3.47321e-20)
(1.08674 -0.658205 2.05602e-21)
(1.07958 -0.563957 -2.347e-20)
(1.07388 -0.488487 -3.31113e-20)
(1.06931 -0.427134 2.35516e-20)
(1.06561 -0.376598 -9.82611e-21)
(1.06261 -0.334471 -8.11875e-21)
(1.06018 -0.298885 -3.58702e-20)
(1.0583 -0.268161 -1.55292e-20)
(1.25328 -0.910847 6.76865e-20)
(1.21727 -0.75909 8.4747e-21)
(1.18953 -0.642203 6.04535e-21)
(1.16773 -0.550272 -7.36735e-20)
(1.1503 -0.476677 1.84265e-20)
(1.13616 -0.416867 3.01817e-20)
(1.12456 -0.367631 -5.3758e-20)
(1.11495 -0.326645 -5.09113e-21)
(1.107 -0.2922 1.21777e-20)
(1.10053 -0.263025 4.07305e-21)
(1.3935 -0.865663 2.52769e-20)
(1.3342 -0.721419 4.00804e-20)
(1.28853 -0.610329 3.52974e-20)
(1.25262 -0.522965 -5.89126e-20)
(1.22387 -0.453035 1.33757e-20)
(1.2005 -0.396214 5.39705e-20)
(1.18124 -0.34946 -9.3685e-20)
(1.16514 -0.310603 4.71851e-20)
(1.15151 -0.278098 6.72203e-20)
(1.13974 -0.250908 4.96235e-20)
(1.52492 -0.79911 -4.11908e-20)
(1.4438 -0.665934 5.49026e-20)
(1.38132 -0.563371 7.02395e-21)
(1.33218 -0.482711 6.86644e-20)
(1.29284 -0.418138 -1.41182e-21)
(1.26084 -0.365652 4.43256e-20)
(1.23443 -0.322431 -1.88597e-20)
(1.21233 -0.286437 1.56765e-20)
(1.19358 -0.25616 -1.55023e-20)
(1.17739 -0.230441 5.38637e-20)
(1.6443 -0.71282 -9.67093e-20)
(1.54335 -0.593996 4.2161e-21)
(1.46561 -0.502483 -6.52157e-21)
(1.40447 -0.430505 4.87304e-20)
(1.35552 -0.372868 -2.11808e-20)
(1.31571 -0.325992 -1.47916e-21)
(1.28288 -0.287344 1.50192e-20)
(1.25544 -0.255082 -2.68229e-20)
(1.23224 -0.227829 -7.05891e-20)
(1.21237 -0.204518 1.14731e-21)
(1.7487 -0.608917 -2.11747e-20)
(1.63041 -0.507378 -4.02527e-20)
(1.53932 -0.429175 5.6913e-21)
(1.4677 -0.367657 -7.13847e-20)
(1.41037 -0.31838 -3.82281e-20)
(1.36377 -0.278281 1.8794e-20)
(1.32536 -0.245189 -3.41486e-20)
(1.29332 -0.217524 -8.47103e-21)
(1.26631 -0.194109 -2.77598e-20)
(1.24332 -0.174044 1.03707e-20)
(1.83553 -0.489961 3.50972e-20)
(1.70282 -0.40822 -2.80957e-20)
(1.60064 -0.34526 -2.76724e-20)
(1.52031 -0.295728 -6.77676e-20)
(1.45602 -0.256041 2.64135e-20)
(1.40378 -0.223734 5.0642e-21)
(1.36077 -0.197056 -2.6905e-20)
(1.32493 -0.174737 -3.39104e-20)
(1.29477 -0.155835 4.05931e-21)
(1.26917 -0.139638 -4.47808e-20)
(1.90264 -0.358885 1.06954e-20)
(1.75878 -0.298968 -2.87662e-20)
(1.64803 -0.252815 -4.20178e-20)
(1.56098 -0.216501 -1.83784e-20)
(1.49132 -0.187401 3.40668e-20)
(1.43474 -0.163704 -3.49564e-20)
(1.38817 -0.144131 -6.80105e-21)
(1.3494 -0.127752 -1.80634e-20)
(1.3168 -0.113881 2.87727e-20)
(1.28917 -0.102001 -2.30532e-20)
(1.94837 -0.218926 -1.02002e-20)
(1.79692 -0.182319 -4.42771e-21)
(1.68033 -0.154119 -1.49939e-20)
(1.58869 -0.13193 4.64266e-21)
(1.51538 -0.114146 -5.0462e-21)
(1.45584 -0.0996636 -1.17754e-20)
(1.40685 -0.0876996 7.16627e-21)
(1.36608 -0.0776876 3.70381e-21)
(1.33183 -0.0692099 4.04976e-21)
(1.3028 -0.0619537 1.02385e-21)
(1.97158 -0.0735375 -1.12013e-20)
(1.81627 -0.0611514 -3.52899e-21)
(1.69672 -0.0516075 7.4378e-22)
(1.60275 -0.0440962 -3.92298e-21)
(1.52759 -0.0380765 -8.76333e-21)
(1.46655 -0.0331742 1.41814e-21)
(1.41633 -0.0291251 -5.99228e-21)
(1.37455 -0.0257375 1.38957e-21)
(1.33945 -0.02287 5.07113e-22)
(1.30971 -0.0204173 -8.35171e-21)
(0.0999482 -0.0732822 -3.1586e-22)
(0.254627 -0.0610829 1.03067e-21)
(0.373673 -0.0516731 -5.38586e-22)
(0.467192 -0.0442619 -5.88694e-22)
(0.541961 -0.0383197 -2.63695e-21)
(0.60265 -0.0334836 -4.88173e-21)
(0.652567 -0.0294983 1.54893e-21)
(0.694111 -0.0261819 2.34758e-21)
(0.72906 -0.0234035 1.59565e-21)
(0.758765 -0.021069 3.10114e-21)
(0.122899 -0.218031 -1.1924e-21)
(0.273801 -0.181736 1.89432e-21)
(0.38993 -0.153738 -2.5509e-21)
(0.481154 -0.131685 -3.87125e-21)
(0.55408 -0.114 2.25245e-21)
(0.613263 -0.0996028 -6.84937e-22)
(0.661923 -0.087733 -3.28369e-21)
(0.702394 -0.0778479 -2.24059e-21)
(0.736403 -0.0695534 1.30634e-20)
(0.765246 -0.0625625 2.44836e-20)
(0.168239 -0.357437 2.3378e-21)
(0.311675 -0.297933 5.69044e-21)
(0.422049 -0.25203 2.91519e-21)
(0.508743 -0.215867 1.48585e-20)
(0.578037 -0.186861 1.52378e-21)
(0.634255 -0.163236 -1.559e-20)
(0.680449 -0.143743 1.22016e-20)
(0.71883 -0.127489 -3.05402e-21)
(0.751031 -0.113821 2.82688e-21)
(0.778287 -0.102264 3.79323e-20)
(0.234872 -0.488122 8.46247e-21)
(0.367334 -0.40685 2.54723e-21)
(0.469253 -0.344156 -1.75589e-20)
(0.5493 -0.294761 -2.63377e-20)
(0.613271 -0.255131 -1.12729e-20)
(0.665153 -0.222834 -6.76728e-21)
(0.707753 -0.196158 -1.12881e-20)
(0.743099 -0.173875 -4.94176e-20)
(0.772681 -0.155092 -3.99524e-22)
(0.797621 -0.13916 -2.72177e-20)
(0.321182 -0.606877 1.19785e-20)
(0.439423 -0.505815 -8.77429e-21)
(0.530394 -0.427861 1.04814e-20)
(0.601841 -0.366439 -3.52801e-20)
(0.65894 -0.317148 -1.28495e-20)
(0.705243 -0.276953 -9.34387e-21)
(0.743245 -0.243712 -1.70763e-20)
(0.774733 -0.215883 1.83213e-20)
(0.801008 -0.192342 3.51915e-20)
(0.823027 -0.172271 6.44467e-20)
(0.425067 -0.710786 -2.31647e-20)
(0.526181 -0.592401 -3.67993e-20)
(0.603974 -0.501097 4.88624e-21)
(0.665081 -0.429159 2.129e-20)
(0.713933 -0.371419 2.34919e-20)
(0.753569 -0.324314 1.56379e-20)
(0.786117 -0.285313 7.12827e-22)
(0.813091 -0.252582 -3.0073e-20)
(0.835564 -0.224767 -5.05914e-20)
(0.854285 -0.200864 -4.97499e-20)
(0.543994 -0.797284 -7.4602e-20)
(0.62548 -0.664475 -6.2068e-20)
(0.688176 -0.562066 4.83536e-21)
(0.737446 -0.481391 1.83414e-21)
(0.776871 -0.416647 -1.15887e-20)
(0.808913 -0.363825 3.60535e-20)
(0.835305 -0.320069 -3.67342e-20)
(0.85728 -0.283285 -3.7628e-20)
(0.875708 -0.251891 -6.55031e-20)
(0.891149 -0.224654 2.2194e-20)
(0.67505 -0.864225 -4.15725e-20)
(0.734882 -0.720253 -2.73472e-20)
(0.780919 -0.609263 2.55917e-20)
(0.817122 -0.521856 -6.55483e-20)
(0.846138 -0.45174 6.07556e-21)
(0.869798 -0.394572 4.85553e-20)
(0.889416 -0.347258 -2.32837e-20)
(0.905973 -0.307519 4.12748e-20)
(0.920229 -0.273601 -7.08408e-20)
(0.932775 -0.244051 -3.31827e-21)
(0.815014 -0.909928 -1.04074e-20)
(0.851687 -0.758337 9.35463e-21)
(0.879906 -0.641506 8.47743e-21)
(0.902115 -0.549536 -4.94351e-20)
(0.919953 -0.475813 2.15118e-20)
(0.934564 -0.415781 -2.29749e-20)
(0.946783 -0.366222 5.75946e-20)
(0.957289 -0.324803 4.55244e-20)
(0.966743 -0.289792 -9.81083e-20)
(0.976024 -0.259825 -9.34703e-20)
(0.960428 -0.933229 -2.06147e-20)
(0.973012 -0.777756 -3.18943e-20)
(0.982687 -0.657963 -1.10731e-20)
(0.990317 -0.5637 -2.19006e-20)
(0.996476 -0.488191 8.99614e-21)
(1.00156 -0.426784 -5.20649e-21)
(1.00583 -0.376219 4.38143e-20)
(1.00945 -0.334208 4.71453e-20)
(1.01239 -0.299227 -3.57952e-20)
(1.01427 -0.270524 -6.84151e-20)
(0.788891 -0.0181768 3.68268e-21)
(0.820227 -0.0145752 1.32548e-21)
(0.84565 -0.0118447 -5.0834e-21)
(0.866515 -0.0097176 -3.17977e-21)
(0.883809 -0.00805623 4.07085e-21)
(0.898298 -0.00675355 7.51017e-21)
(0.910573 -0.00572442 7.62693e-21)
(0.921082 -0.00490025 5.69984e-21)
(0.93016 -0.00422845 1.50737e-21)
(0.938059 -0.00367069 1.20594e-21)
(0.944967 -0.00320007 5.02214e-22)
(0.95103 -0.00279806 1.67824e-22)
(0.956366 -0.00245173 9.60745e-22)
(0.96107 -0.00215182 1.20346e-21)
(0.965225 -0.00189137 1.312e-21)
(0.968899 -0.00166489 -1.48383e-22)
(0.972154 -0.00146793 -1.2717e-21)
(0.975043 -0.00129672 -1.16935e-21)
(0.977612 -0.00114803 -5.92266e-22)
(0.979905 -0.00102021 -1.48941e-22)
(0.794185 -0.0541144 1.67571e-21)
(0.824082 -0.0434579 -1.10721e-20)
(0.848512 -0.0353374 -1.57418e-20)
(0.868662 -0.029011 -1.73994e-20)
(0.885454 -0.0240713 5.29355e-21)
(0.899603 -0.0201996 -6.84951e-21)
(0.911657 -0.0171375 -1.89296e-20)
(0.922023 -0.0146789 -1.83754e-20)
(0.931005 -0.0126683 -1.94041e-20)
(0.93883 -0.010994 -1.44579e-20)
(0.945671 -0.00957863 -6.03806e-22)
(0.95167 -0.0083688 5.654e-21)
(0.956942 -0.00732701 5.90926e-21)
(0.961583 -0.00642589 1.83453e-21)
(0.965676 -0.00564446 -2.64583e-21)
(0.969294 -0.004966 -6.67277e-22)
(0.972497 -0.00437674 -1.24648e-21)
(0.97534 -0.0038651 -8.99605e-22)
(0.97787 -0.00342124 5.56118e-22)
(0.980128 -0.0030408 8.76173e-22)
(0.805071 -0.0888773 -1.74466e-20)
(0.832134 -0.0715394 -4.38154e-20)
(0.854531 -0.0582323 -4.66002e-22)
(0.873209 -0.0478761 2.57158e-20)
(0.88897 -0.0398009 2.09408e-20)
(0.902426 -0.0334707 -1.7597e-20)
(0.914021 -0.028448 -2.69444e-20)
(0.924078 -0.0243917 -1.61072e-20)
(0.932834 -0.0210529 -2.13356e-20)
(0.940472 -0.0182581 -1.24249e-20)
(0.947146 -0.0158885 -3.18955e-21)
(0.952988 -0.0138619 7.59564e-21)
(0.958109 -0.0121188 2.03291e-20)
(0.962609 -0.0106146 3.68159e-21)
(0.966572 -0.00931387 -3.68806e-21)
(0.970072 -0.00818776 3.89316e-22)
(0.973171 -0.00721215 -5.58952e-21)
(0.975923 -0.00636678 -3.19562e-21)
(0.978375 -0.00563455 1.48582e-21)
(0.980567 -0.00500796 -8.02218e-22)
(0.821352 -0.121701 -3.02699e-20)
(0.84419 -0.0982779 1.81127e-20)
(0.86356 -0.080128 2.12287e-20)
(0.880088 -0.0660452 -9.52714e-21)
(0.894382 -0.0550831 -4.7026e-20)
(0.906862 -0.0464702 -1.3764e-20)
(0.917796 -0.039587 1.71862e-20)
(0.927371 -0.0339744 5.37291e-21)
(0.935739 -0.0293139 3.57306e-21)
(0.943039 -0.0253901 9.2763e-23)
(0.949408 -0.0220558 -2.54113e-21)
(0.954968 -0.0192055 -2.16898e-20)
(0.959835 -0.01676 -8.62887e-21)
(0.964106 -0.014657 1.89398e-20)
(0.967867 -0.0128454 3.7895e-21)
(0.97119 -0.0112827 3.05321e-21)
(0.974138 -0.00993319 -1.43739e-23)
(0.976761 -0.00876658 -8.01084e-21)
(0.979105 -0.00775756 -3.225e-21)
(0.981204 -0.00689393 2.50281e-21)
(0.842969 -0.151713 8.54175e-20)
(0.860239 -0.123122 1.41542e-20)
(0.875647 -0.100668 -1.54939e-20)
(0.88947 -0.083322 -3.18692e-20)
(0.901971 -0.0698129 -1.06253e-20)
(0.913234 -0.059115 3.60493e-20)
(0.92327 -0.050457 6.63517e-20)
(0.932113 -0.04331 6.7249e-20)
(0.939844 -0.0373249 5.36772e-20)
(0.946579 -0.0322667 1.47145e-20)
(0.952446 -0.0279682 -4.00024e-21)
(0.957569 -0.0243029 2.09561e-20)
(0.962058 -0.0211701 2.30708e-20)
(0.966007 -0.0184872 1.63723e-20)
(0.969497 -0.0161856 1.03361e-20)
(0.972594 -0.0142073 1.00157e-20)
(0.975352 -0.0125039 -6.8607e-21)
(0.977818 -0.0110344 -1.63272e-20)
(0.98003 -0.00976455 -5.20841e-21)
(0.982019 -0.00867629 -4.50545e-22)
(0.869765 -0.17796 -6.00257e-21)
(0.880275 -0.145531 6.91123e-20)
(0.891002 -0.119608 1.34496e-19)
(0.901801 -0.0996199 7.51452e-20)
(0.91227 -0.0839112 -7.79911e-21)
(0.921999 -0.0712663 -5.86637e-20)
(0.930741 -0.0608655 -3.02631e-20)
(0.938439 -0.0521863 -2.79957e-20)
(0.945162 -0.0448849 -3.81966e-20)
(0.951027 -0.0387153 -4.74349e-21)
(0.956161 -0.0334878 1.95403e-20)
(0.960678 -0.0290486 1.34178e-20)
(0.964671 -0.0252706 -2.05618e-21)
(0.968219 -0.022048 2.74838e-20)
(0.971385 -0.0192925 1.29527e-20)
(0.97422 -0.0169303 -3.44963e-21)
(0.976765 -0.0148999 -3.32629e-21)
(0.979057 -0.01315 -6.11083e-21)
(0.981125 -0.0116381 5.28549e-22)
(0.982992 -0.0103395 9.9288e-22)
(0.901347 -0.199477 8.61569e-20)
(0.904412 -0.165085 8.24955e-20)
(0.910265 -0.136929 -1.78953e-20)
(0.917936 -0.114909 -3.76292e-21)
(0.925956 -0.0971812 7.23489e-20)
(0.933492 -0.082603 3.12081e-20)
(0.940245 -0.070461 -3.19627e-20)
(0.946206 -0.0602888 -2.06309e-20)
(0.951471 -0.0517441 8.31877e-21)
(0.956153 -0.0445526 8.27238e-21)
(0.960347 -0.0384868 3.3576e-20)
(0.964125 -0.0333573 -1.128e-20)
(0.967543 -0.0290067 -5.59644e-20)
(0.970643 -0.0253047 -2.33948e-20)
(0.973459 -0.0221442 -2.21797e-21)
(0.976017 -0.0194369 2.09295e-20)
(0.978341 -0.01711 -2.44795e-21)
(0.980451 -0.0151037 1.1816e-22)
(0.982368 -0.0133684 1.13776e-20)
(0.984106 -0.0118736 -1.8164e-22)
(0.9367 -0.215808 4.15358e-20)
(0.933145 -0.181802 -2.18133e-20)
(0.934664 -0.15279 -4.59248e-20)
(0.938705 -0.128907 -2.84885e-20)
(0.943119 -0.109075 -8.85036e-20)
(0.9473 -0.0925593 -3.89587e-20)
(0.951182 -0.0787879 4.52526e-20)
(0.954831 -0.0672972 1.37611e-20)
(0.958298 -0.0576957 -1.08432e-20)
(0.961608 -0.0496528 1.171e-20)
(0.964762 -0.0428932 -1.64067e-20)
(0.967753 -0.0371901 -2.19213e-20)
(0.970574 -0.0323587 -3.32278e-20)
(0.973218 -0.0282483 -4.86554e-20)
(0.975681 -0.0247367 -3.34739e-20)
(0.977962 -0.0217244 -1.31657e-20)
(0.980063 -0.0191307 1.39632e-20)
(0.981988 -0.0168897 7.15742e-21)
(0.983747 -0.0149475 -8.62686e-21)
(0.985347 -0.0132689 -4.73098e-21)
(0.973587 -0.228332 -1.60968e-20)
(0.967226 -0.196675 -1.0755e-20)
(0.964661 -0.166901 -1.06292e-20)
(0.963034 -0.140711 -6.46124e-20)
(0.962014 -0.118782 -7.7799e-21)
(0.961786 -0.100612 2.83897e-20)
(0.962334 -0.0855685 -1.31398e-20)
(0.96352 -0.0730878 -2.05614e-20)
(0.965174 -0.0626982 1.62306e-20)
(0.967139 -0.0540129 1.58353e-20)
(0.969287 -0.0467184 1.6198e-21)
(0.97152 -0.0405618 1.4385e-21)
(0.973763 -0.0353395 -4.32951e-20)
(0.97596 -0.0308878 -5.43108e-20)
(0.978071 -0.0270744 4.74765e-21)
(0.98007 -0.0237933 -5.11857e-21)
(0.981938 -0.0209587 -1.10625e-20)
(0.983667 -0.0185016 1.91211e-20)
(0.985254 -0.0163664 6.86794e-21)
(0.986702 -0.0145148 1.92401e-22)
(1.00421 -0.238797 -1.37001e-20)
(0.993177 -0.208867 4.57643e-20)
(0.983598 -0.17843 1.14701e-19)
(0.976486 -0.150412 3.40824e-20)
(0.972178 -0.126887 -3.85781e-21)
(0.969948 -0.107476 -2.90103e-20)
(0.969184 -0.0914587 -1.20101e-19)
(0.969434 -0.0781912 -1.96237e-20)
(0.970367 -0.0671503 8.8651e-20)
(0.971743 -0.0579167 4.84049e-20)
(0.97339 -0.0501543 -1.62912e-20)
(0.975183 -0.043594 -5.69699e-20)
(0.977034 -0.0380194 -9.5234e-21)
(0.978877 -0.0332568 -6.38413e-21)
(0.98067 -0.0291668 -2.08554e-20)
(0.982381 -0.0256378 2.21398e-20)
(0.983993 -0.0225806 1.35153e-21)
(0.985494 -0.0199237 -4.7653e-21)
(0.986882 -0.0176101 7.06458e-21)
(0.988153 -0.0155979 2.23252e-21)
(1.03382 -0.230513 0)
(1.01048 -0.203289 0)
(0.992882 -0.176145 0)
(0.98164 -0.150656 0)
(0.975469 -0.128564 0)
(0.972589 -0.109888 0)
(0.971745 -0.0941975 0)
(0.972138 -0.0810199 0)
(0.973262 -0.0699302 0)
(0.974794 -0.0605689 0)
(0.976524 -0.0526368 0)
(0.978318 -0.0458875 0)
(0.980095 -0.0401187 0)
(0.981805 -0.0351654 0)
(0.98342 -0.0308933 0)
(0.984929 -0.0271935 0)
(0.986327 -0.0239781 0)
(0.987617 -0.0211761 0)
(0.988803 -0.01873 0)
(0.989887 -0.0165941 0)
(1.06066 -0.202706 0)
(1.03479 -0.1819 0)
(1.01602 -0.161172 0)
(1.0029 -0.141265 0)
(0.994207 -0.123098 0)
(0.988755 -0.107023 0)
(0.98556 -0.0930247 0)
(0.983906 -0.0809317 0)
(0.983284 -0.0705208 0)
(0.983341 -0.0615661 0)
(0.983832 -0.0538588 0)
(0.984586 -0.0472141 0)
(0.98549 -0.041472 0)
(0.986465 -0.0364965 0)
(0.98746 -0.032173 0)
(0.988442 -0.0284056 0)
(0.98939 -0.0251148 0)
(0.990294 -0.0222343 0)
(0.991145 -0.0197094 0)
(0.99194 -0.0174942 0)
(1.07623 -0.174117 0)
(1.05202 -0.160438 0)
(1.03352 -0.145386 0)
(1.01971 -0.130139 0)
(1.00971 -0.115546 0)
(1.00266 -0.102085 0)
(0.997836 -0.0899504 0)
(0.994642 -0.0791647 0)
(0.992628 -0.0696576 0)
(0.991456 -0.0613179 0)
(0.990876 -0.0540201 0)
(0.990705 -0.0476397 0)
(0.990813 -0.0420602 0)
(0.991104 -0.037177 0)
(0.991511 -0.0328977 0)
(0.991987 -0.0291423 0)
(0.992499 -0.025842 0)
(0.993023 -0.0229381 0)
(0.993543 -0.0203807 0)
(0.994049 -0.0181268 0)
(1.08471 -0.148839 0)
(1.06352 -0.140354 0)
(1.04632 -0.129798 0)
(1.03274 -0.118364 0)
(1.02226 -0.106866 0)
(1.01435 -0.0958241 0)
(1.00848 -0.0855313 0)
(1.0042 -0.0761218 0)
(1.00113 -0.0676298 0)
(0.998979 -0.0600303 0)
(0.99751 -0.0532662 0)
(0.996546 -0.0472661 0)
(0.995952 -0.0419539 0)
(0.995627 -0.037255 0)
(0.995494 -0.0330999 0)
(0.995497 -0.0294251 0)
(0.995595 -0.026174 0)
(0.995755 -0.0232967 0)
(0.995956 -0.0207495 0)
(0.996181 -0.0184942 0)
(1.0893 -0.12746 0)
(1.07106 -0.122342 0)
(1.05551 -0.115092 0)
(1.04265 -0.106655 0)
(1.03225 -0.0977323 0)
(1.024 -0.0888172 0)
(1.01754 -0.080231 0)
(1.01254 -0.0721636 0)
(1.00872 -0.0647114 0)
(1.00582 -0.0579087 0)
(1.00364 -0.0517499 0)
(1.00202 -0.046206 0)
(1.00082 -0.0412354 0)
(0.999958 -0.0367905 0)
(0.999341 -0.0328228 0)
(0.998913 -0.0292851 0)
(0.998627 -0.026133 0)
(0.998447 -0.0233261 0)
(0.998346 -0.0208274 0)
(0.998302 -0.0186043 0)
(1.09162 -0.109405 0)
(1.07589 -0.106461 0)
(1.06201 -0.101577 0)
(1.0501 -0.0954341 0)
(1.0401 -0.0885926 0)
(1.03185 -0.0814828 0)
(1.02513 -0.0744133 0)
(1.01972 -0.0675912 0)
(1.01539 -0.0611447 0)
(1.01194 -0.0551442 0)
(1.00921 -0.0496196 0)
(1.00706 -0.0445737 0)
(1.00537 -0.039992 0)
(1.00404 -0.0358497 0)
(1.003 -0.0321165 0)
(1.00219 -0.0287601 0)
(1.00155 -0.0257478 0)
(1.00106 -0.0230479 0)
(1.00068 -0.0206309 0)
(1.00038 -0.0184694 0)
(1.09251 -0.0940267 0)
(1.07888 -0.0925223 0)
(1.06653 -0.0893238 0)
(1.05563 -0.0849128 0)
(1.0462 -0.0797222 0)
(1.03818 -0.0741089 0)
(1.03143 -0.068349 0)
(1.02581 -0.062644 0)
(1.02117 -0.0571328 0)
(1.01734 -0.0519047 0)
(1.01421 -0.0470115 0)
(1.01165 -0.042478 0)
(1.00955 -0.0383099 0)
(1.00783 -0.0345004 0)
(1.00643 -0.0310343 0)
(1.00528 -0.0278918 0)
(1.00434 -0.0250506 0)
(1.00356 -0.0224876 0)
(1.00292 -0.0201798 0)
(1.00239 -0.0181052 0)
(1.09246 -0.08082 0)
(1.0806 -0.0802822 0)
(1.06962 -0.0782841 0)
(1.0597 -0.0751715 0)
(1.0509 -0.0712747 0)
(1.04322 -0.066882 0)
(1.0366 -0.0622303 0)
(1.03093 -0.0575036 0)
(1.02613 -0.0528384 0)
(1.02206 -0.0483308 0)
(1.01864 -0.0440444 0)
(1.01576 -0.0400175 0)
(1.01335 -0.0362701 0)
(1.01132 -0.0328083 0)
(1.00961 -0.029629 0)
(1.00817 -0.0267227 0)
(1.00696 -0.0240758 0)
(1.00593 -0.0216726 0)
(1.00506 -0.0194963 0)
(1.00432 -0.0175297 0)
(1.0918 -0.0693982 0)
(1.08142 -0.0695044 0)
(1.07164 -0.0683585 0)
(1.06264 -0.0662142 0)
(1.05449 -0.0633227 0)
(1.04722 -0.0599142 0)
(1.04081 -0.0561866 0)
(1.0352 -0.052302 0)
(1.03034 -0.048387 0)
(1.02614 -0.0445364 0)
(1.02252 -0.0408182 0)
(1.01942 -0.0372783 0)
(1.01676 -0.0339453 0)
(1.01447 -0.0308344 0)
(1.01252 -0.0279513 0)
(1.01084 -0.0252946 0)
(1.00939 -0.0228578 0)
(1.00814 -0.0206313 0)
(1.00707 -0.0186036 0)
(1.00614 -0.016762 0)
(1.09077 -0.0594556 0)
(1.08164 -0.0599777 0)
(1.07291 -0.059431 0)
(1.06473 -0.0580034 0)
(1.0572 -0.0558873 0)
(1.05036 -0.0532651 0)
(1.04421 -0.0503001 0)
(1.03873 -0.047131 0)
(1.03389 -0.0438714 0)
(1.02963 -0.0406101 0)
(1.0259 -0.0374144 0)
(1.02264 -0.0343328 0)
(1.01979 -0.0313988 0)
(1.01731 -0.0286333 0)
(1.01515 -0.0260479 0)
(1.01326 -0.0236471 0)
(1.01162 -0.0214299 0)
(1.01019 -0.0193918 0)
(1.00893 -0.0175255 0)
(1.00783 -0.0158221 0)
(1.08953 -0.0507454 0)
(1.08144 -0.0515191 0)
(1.07362 -0.0513839 0)
(1.06618 -0.0504806 0)
(1.05923 -0.0489573 0)
(1.05281 -0.0469586 0)
(1.04694 -0.0446174 0)
(1.04163 -0.0420508 0)
(1.03686 -0.0393577 0)
(1.0326 -0.0366186 0)
(1.0288 -0.0338968 0)
(1.02544 -0.0312404 0)
(1.02246 -0.0286843 0)
(1.01983 -0.0262525 0)
(1.0175 -0.0239604 0)
(1.01545 -0.0218164 0)
(1.01364 -0.0198235 0)
(1.01205 -0.0179809 0)
(1.01064 -0.0162849 0)
(1.00939 -0.0147298 0)
(1.08819 -0.0430652 0)
(1.081 -0.0439688 0)
(1.07394 -0.0441038 0)
(1.06716 -0.0435769 0)
(1.06073 -0.0425023 0)
(1.0547 -0.0409941 0)
(1.04912 -0.03916 0)
(1.04399 -0.0370972 0)
(1.03932 -0.0348903 0)
(1.03509 -0.0326101 0)
(1.03128 -0.0303143 0)
(1.02785 -0.0280481 0)
(1.02478 -0.0258458 0)
(1.02203 -0.0237325 0)
(1.01958 -0.0217253 0)
(1.0174 -0.0198349 0)
(1.01546 -0.0180671 0)
(1.01372 -0.0164238 0)
(1.01218 -0.0149039 0)
(1.01081 -0.0135041 0)
(1.08686 -0.0362428 0)
(1.08041 -0.0371857 0)
(1.07401 -0.0374842 0)
(1.06779 -0.0372197 0)
(1.06181 -0.0364802 0)
(1.05615 -0.0353551 0)
(1.05084 -0.0339311 0)
(1.0459 -0.0322878 0)
(1.04135 -0.0304962 0)
(1.03717 -0.0286175 0)
(1.03336 -0.0267024 0)
(1.0299 -0.0247922 0)
(1.02677 -0.0229189 0)
(1.02395 -0.0211069 0)
(1.0214 -0.0193736 0)
(1.01911 -0.0177311 0)
(1.01706 -0.0161866 0)
(1.01521 -0.0147437 0)
(1.01356 -0.0134031 0)
(1.01207 -0.0121635 0)
(1.0856 -0.0301293 0)
(1.07976 -0.0310443 0)
(1.07391 -0.0314263 0)
(1.06816 -0.0313367 0)
(1.06259 -0.0308429 0)
(1.05725 -0.0300148 0)
(1.05219 -0.0289212 0)
(1.04743 -0.0276265 0)
(1.04299 -0.0261895 0)
(1.03889 -0.0246614 0)
(1.0351 -0.0230861 0)
(1.03163 -0.0214996 0)
(1.02846 -0.019931 0)
(1.02558 -0.0184027 0)
(1.02296 -0.0169316 0)
(1.02059 -0.0155296 0)
(1.01844 -0.0142047 0)
(1.01651 -0.0129614 0)
(1.01476 -0.0118016 0)
(1.01319 -0.0107253 0)
(1.08445 -0.0245957 0)
(1.07911 -0.0254337 0)
(1.07372 -0.0258388 0)
(1.06837 -0.0258569 0)
(1.06313 -0.0255392 0)
(1.05807 -0.0249397 0)
(1.05323 -0.024112 0)
(1.04863 -0.0231076 0)
(1.04431 -0.0219737 0)
(1.04028 -0.0207527 0)
(1.03652 -0.019481 0)
(1.03306 -0.0181893 0)
(1.02987 -0.0169029 0)
(1.02695 -0.0156415 0)
(1.02427 -0.0144206 0)
(1.02184 -0.0132513 0)
(1.01962 -0.0121414 0)
(1.01761 -0.0110957 0)
(1.01579 -0.0101168 0)
(1.01414 -0.00920552 0)
(1.08345 -0.0195292 0)
(1.07851 -0.0202542 0)
(1.07349 -0.0206373 0)
(1.06846 -0.0207122 0)
(1.06351 -0.0205169 0)
(1.05868 -0.0200923 0)
(1.05402 -0.0194793 0)
(1.04957 -0.0187178 0)
(1.04535 -0.0178451 0)
(1.04138 -0.0168945 0)
(1.03766 -0.0158958 0)
(1.03421 -0.0148738 0)
(1.03101 -0.0138497 0)
(1.02806 -0.01284 0)
(1.02535 -0.011858 0)
(1.02287 -0.0109136 0)
(1.0206 -0.0100138 0)
(1.01853 -0.00916319 0)
(1.01665 -0.00836455 0)
(1.01494 -0.007619 0)
(1.08263 -0.0148293 0)
(1.078 -0.0154155 0)
(1.07326 -0.0157435 0)
(1.06849 -0.0158371 0)
(1.06375 -0.0157236 0)
(1.05911 -0.0154327 0)
(1.0546 -0.0149947 0)
(1.05027 -0.0144391 0)
(1.04614 -0.0137938 0)
(1.04222 -0.0130845 0)
(1.03855 -0.0123335 0)
(1.0351 -0.0115605 0)
(1.0319 -0.0107818 0)
(1.02894 -0.0100107 0)
(1.0262 -0.00925783 0)
(1.02368 -0.00853126 0)
(1.02137 -0.00783686 0)
(1.01926 -0.00717866 0)
(1.01734 -0.00655914 0)
(1.01558 -0.0059795 0)
(1.082 -0.0104051 0)
(1.0776 -0.0108342 0)
(1.07307 -0.0110836 0)
(1.06848 -0.0111685 0)
(1.06391 -0.0111072 0)
(1.05941 -0.0109199 0)
(1.05501 -0.0106272 0)
(1.05077 -0.0102496 0)
(1.0467 -0.00980641 0)
(1.04284 -0.00931557 0)
(1.03919 -0.008793 0)
(1.03576 -0.00825256 0)
(1.03256 -0.00770598 0)
(1.02958 -0.00716292 0)
(1.02683 -0.00663111 0)
(1.02429 -0.00611651 0)
(1.02195 -0.00562356 0)
(1.01981 -0.00515534 0)
(1.01785 -0.0047138 0)
(1.01606 -0.00429993 0)
(1.08158 -0.00617216 0)
(1.07732 -0.00643254 0)
(1.07293 -0.00658782 0)
(1.06847 -0.00664561 0)
(1.064 -0.00661648 0)
(1.05959 -0.00651199 0)
(1.05527 -0.00634425 0)
(1.05109 -0.00612522 0)
(1.04707 -0.00586632 0)
(1.04324 -0.00557811 0)
(1.03961 -0.00527007 0)
(1.03619 -0.00495048 0)
(1.03299 -0.00462639 0)
(1.03001 -0.00430364 0)
(1.02725 -0.00398693 0)
(1.02469 -0.00367991 0)
(1.02234 -0.00338536 0)
(1.02017 -0.0031052 0)
(1.01819 -0.0028407 0)
(1.01638 -0.00259245 0)
(1.08138 -0.00204666 0)
(1.07718 -0.00213355 0)
(1.07285 -0.00218618 0)
(1.06845 -0.00220656 0)
(1.06405 -0.00219808 0)
(1.05968 -0.00216453 0)
(1.0554 -0.0021099 0)
(1.05125 -0.00203812 0)
(1.04725 -0.00195297 0)
(1.04343 -0.00185794 0)
(1.03982 -0.00175617 0)
(1.0364 -0.00165041 0)
(1.03321 -0.00154302 0)
(1.03022 -0.00143594 0)
(1.02745 -0.00133075 0)
(1.02489 -0.00122869 0)
(1.02253 -0.0011307 0)
(1.02035 -0.00103746 0)
(1.01836 -0.000949382 0)
(1.01654 -0.000866644 0)
(1.27725 -0.0172232 -2.55363e-22)
(1.27178 -0.0525574 -4.0434e-22)
(1.26098 -0.0868058 -1.33438e-20)
(1.24502 -0.119288 -9.17897e-21)
(1.22418 -0.149366 -1.27154e-20)
(1.19876 -0.176407 -5.4524e-21)
(1.16919 -0.199652 2.73377e-21)
(1.13601 -0.217679 2.42805e-20)
(1.10033 -0.226686 -1.08003e-20)
(1.06402 -0.232562 -1.21443e-20)
(1.24715 -0.0137338 -4.1396e-22)
(1.24321 -0.0422917 -1.53033e-21)
(1.23545 -0.0702206 -1.00703e-20)
(1.22409 -0.0971542 1.91924e-21)
(1.20938 -0.122755 -1.18106e-20)
(1.19152 -0.146616 -6.47052e-21)
(1.17051 -0.167985 1.26074e-21)
(1.14609 -0.185176 -1.18375e-20)
(1.11876 -0.195721 -9.6394e-21)
(1.08976 -0.205414 -1.94095e-20)
(1.22257 -0.0111274 -3.0255e-22)
(1.21967 -0.0346061 1.16017e-21)
(1.21394 -0.0577401 2.48229e-21)
(1.20542 -0.0802757 1.07783e-20)
(1.19411 -0.101856 -2.36264e-21)
(1.17993 -0.121878 1.70039e-20)
(1.16273 -0.139359 -1.03267e-20)
(1.1428 -0.153138 -7.20384e-20)
(1.12169 -0.163902 -1.75417e-21)
(1.1003 -0.175838 3.38306e-20)
(1.20212 -0.00913664 -2.28364e-22)
(1.19989 -0.0286842 -1.01856e-22)
(1.1954 -0.0479675 3.88578e-21)
(1.18857 -0.0667147 3.37089e-21)
(1.17929 -0.0844882 -9.0265e-21)
(1.16749 -0.100663 2.71322e-20)
(1.15332 -0.114626 -9.48099e-21)
(1.13752 -0.126441 -6.38665e-20)
(1.12122 -0.13814 -4.10991e-20)
(1.10454 -0.15048 2.80342e-20)
(1.18488 -0.00755642 8.98126e-22)
(1.18304 -0.0239324 6.73511e-22)
(1.17931 -0.0400004 -2.88514e-21)
(1.17359 -0.0554592 -1.14091e-20)
(1.16582 -0.0699042 -2.63446e-21)
(1.15608 -0.082946 1.30775e-20)
(1.14472 -0.0945342 3.47855e-20)
(1.13238 -0.10539 -4.38796e-20)
(1.11948 -0.117133 -5.58203e-20)
(1.10585 -0.128652 -5.90811e-20)
(1.17022 -0.00625503 -5.64711e-23)
(1.16865 -0.0199905 -4.19694e-22)
(1.16546 -0.0333546 3.31801e-21)
(1.16062 -0.046062 2.13506e-21)
(1.15414 -0.0578374 1.31191e-20)
(1.14622 -0.0685765 -3.76527e-21)
(1.1372 -0.0785715 1.61301e-20)
(1.12742 -0.0885842 -1.53186e-20)
(1.11694 -0.0995051 -3.03517e-20)
(1.10559 -0.109779 -1.99014e-20)
(1.15775 -0.00516162 -5.77973e-22)
(1.15639 -0.0166695 -2.67564e-21)
(1.15365 -0.0277807 -2.40183e-21)
(1.14956 -0.0382632 2.83488e-21)
(1.1442 -0.0479846 7.36504e-21)
(1.13778 -0.0570323 -2.39213e-20)
(1.13054 -0.0657936 -1.17759e-20)
(1.12261 -0.0748314 2.32061e-20)
(1.11393 -0.0845421 -2.98088e-21)
(1.10439 -0.0935259 3.18149e-20)
(1.14715 -0.00423955 -1.25843e-22)
(1.14598 -0.0138667 -1.21655e-21)
(1.14363 -0.0231189 3.01174e-21)
(1.14019 -0.031829 1.63691e-21)
(1.13576 -0.0399682 1.86533e-21)
(1.13051 -0.0477066 -2.65478e-20)
(1.12458 -0.0553909 -1.40638e-20)
(1.11801 -0.0633776 6.3657e-21)
(1.11071 -0.0718064 -9.04553e-21)
(1.10264 -0.079581 3.53195e-20)
(1.13816 -0.00346604 1.43638e-22)
(1.13716 -0.0115105 9.46178e-22)
(1.13516 -0.0192336 -5.97246e-22)
(1.13226 -0.0265254 -6.35347e-21)
(1.12856 -0.0334135 1.05096e-20)
(1.1242 -0.0400766 -1.1244e-20)
(1.11925 -0.0467789 4.66843e-21)
(1.1137 -0.0537285 -3.73034e-21)
(1.10748 -0.0609487 6.18896e-21)
(1.10059 -0.067628 4.46251e-20)
(1.13056 -0.00282142 -5.56205e-22)
(1.1297 -0.00953656 -4.27398e-22)
(1.128 -0.0159971 -1.76745e-21)
(1.12554 -0.0221349 -2.9246e-21)
(1.12241 -0.0279989 1.44993e-20)
(1.11872 -0.0337409 -2.00673e-21)
(1.11449 -0.0395451 2.54459e-21)
(1.10971 -0.0455263 7.91715e-21)
(1.10435 -0.0516613 1.05711e-20)
(1.09841 -0.0573642 2.31999e-20)
(1.12415 -0.00228684 -2.96468e-23)
(1.12341 -0.00788365 -7.54713e-22)
(1.12196 -0.0132916 -1.29822e-22)
(1.11984 -0.0184698 -3.43139e-21)
(1.11715 -0.0234681 3.99287e-21)
(1.11395 -0.0284017 -9.20836e-21)
(1.11027 -0.0333916 8.08373e-21)
(1.1061 -0.0384962 1.38647e-21)
(1.10141 -0.0436763 3.38916e-21)
(1.09622 -0.048515 1.20273e-20)
(1.11875 -0.00184467 -3.84514e-23)
(1.11812 -0.00649593 -3.58618e-22)
(1.11686 -0.0110139 1.06889e-21)
(1.11502 -0.0153762 -5.32362e-21)
(1.11266 -0.0196234 -1.02148e-21)
(1.10984 -0.0238377 -8.97776e-21)
(1.10657 -0.0280935 6.07201e-21)
(1.10287 -0.0324172 5.8463e-21)
(1.0987 -0.0367645 1.49662e-20)
(1.09411 -0.0408411 -2.33457e-21)
(1.11424 -0.00147876 -4.06331e-22)
(1.11369 -0.00532275 1.18153e-22)
(1.11258 -0.00907739 2.95789e-21)
(1.11095 -0.0127313 -1.32666e-21)
(1.10884 -0.0163145 1.11877e-21)
(1.10631 -0.0198821 -1.48649e-21)
(1.10337 -0.0234771 -9.66573e-22)
(1.10002 -0.0271072 9.44268e-21)
(1.09627 -0.0307284 7.32028e-21)
(1.09215 -0.0341326 -1.84884e-20)
(1.11049 -0.00117477 -2.9422e-22)
(1.11001 -0.00432073 5.18383e-22)
(1.10901 -0.00741017 -1.1416e-21)
(1.10754 -0.0104381 -7.42178e-22)
(1.10563 -0.0134255 7.50619e-23)
(1.10332 -0.0164069 2.97565e-21)
(1.10063 -0.0194049 -9.41946e-22)
(1.09756 -0.0224159 -1.00413e-20)
(1.09413 -0.0254002 -1.68124e-21)
(1.09038 -0.0282091 -1.8964e-21)
(1.10742 -0.000920122 3.19886e-22)
(1.10699 -0.0034538 7.16844e-22)
(1.10608 -0.00595415 1.98515e-21)
(1.10474 -0.00842005 7.43791e-23)
(1.10298 -0.0108653 -6.70385e-22)
(1.10083 -0.0133106 -3.61175e-21)
(1.09833 -0.0157652 -6.26174e-21)
(1.09547 -0.0182195 -6.4164e-21)
(1.0923 -0.0206388 1.28405e-20)
(1.08883 -0.0229164 6.21135e-22)
(1.10496 -0.000704164 3.10279e-22)
(1.10456 -0.0026919 -2.78139e-22)
(1.10373 -0.00466221 1.4265e-21)
(1.10247 -0.00661566 1.17916e-21)
(1.10083 -0.00856161 -1.91383e-21)
(1.09881 -0.0105111 -4.79775e-21)
(1.09645 -0.0124662 -5.38246e-21)
(1.09376 -0.0144141 -2.10188e-21)
(1.09077 -0.0163257 4.1566e-21)
(1.08752 -0.0181243 5.66657e-22)
(1.10305 -0.0005178 -2.74429e-22)
(1.10268 -0.00201082 2.16936e-22)
(1.10189 -0.00349622 8.8121e-22)
(1.10071 -0.00497601 -1.41356e-21)
(1.09915 -0.00645592 -1.85346e-21)
(1.09723 -0.00794167 2.23602e-23)
(1.09498 -0.00943101 -2.94571e-21)
(1.09241 -0.0109114 2.80086e-21)
(1.08956 -0.0123589 1.98595e-21)
(1.08646 -0.0137192 1.50319e-21)
(1.10164 -0.000353627 -3.04174e-22)
(1.10129 -0.00139071 4.31483e-23)
(1.10055 -0.00242567 2.68837e-21)
(1.09942 -0.00346085 1.91417e-21)
(1.09792 -0.00450012 3.41271e-23)
(1.09607 -0.00554577 -1.5897e-21)
(1.0939 -0.00659448 -5.26287e-21)
(1.09141 -0.0076353 -3.30159e-21)
(1.08866 -0.00865014 3.05926e-22)
(1.08566 -0.00960183 -1.48849e-21)
(1.10071 -0.000205273 7.1735e-22)
(1.10038 -0.000815094 1.97481e-22)
(1.09966 -0.00142442 1.4412e-21)
(1.09857 -0.00203623 2.58997e-21)
(1.09712 -0.00265266 -6.88088e-22)
(1.09532 -0.00327417 7.51999e-22)
(1.0932 -0.00389832 -2.06301e-22)
(1.09077 -0.00451726 -2.11984e-22)
(1.08807 -0.00511967 3.61183e-21)
(1.08514 -0.00568322 2.11292e-21)
(1.10024 -6.73304e-05 -3.0854e-22)
(1.09992 -0.000268894 -8.70466e-22)
(1.09923 -0.000469973 1.38805e-21)
(1.09817 -0.000672372 7.1141e-22)