/*--------------------------------*- C++ -*----------------------------------*\
| =========                 |                                                 |
| \\      /  F ield         | OpenFOAM: The Open Source CFD Toolbox           |
|  \\    /   O peration     | Version:  2312                                  |
|   \\  /    A nd           | Website:  www.openfoam.com                      |
|    \\/     M anipulation  |                                                 |
\*---------------------------------------------------------------------------*/
FoamFile
{
    version     2.0;
    format      ascii;
    arch        "LSB;label=32;scalar=64";
    class       volVectorField;
    location    "0";
    object      UA;
}
// * * * * * * * * * * * * * * * * * * * * * * * * * * * * * * * * * * * * * //

dimensions      [0 1 -1 0 0 0 0];

internalField   nonuniform List<vector> 
3200
(
(1.07106 -0.902868 0)
(1.05925 -0.752863 0)
(1.05016 -0.637346 0)
(1.04301 -0.546505 0)
(1.03729 -0.473782 0)
(1.03263 -0.414661 0)
(1.0288 -0.365952 0)
(1.02561 -0.325346 0)
(1.02291 -0.291141 0)
(1.02062 -0.262059 0)
(1.21142 -0.880636 0)
(1.1763 -0.734325 0)
(1.14925 -0.621653 0)
(1.12797 -0.533048 0)
(1.11094 -0.462116 0)
(1.0971 -0.404451 0)
(1.08569 -0.356941 0)
(1.07619 -0.317335 0)
(1.06818 -0.283972 0)
(1.06137 -0.255606 0)
(1.34658 -0.83672 0)
(1.289 -0.697705 0)
(1.24466 -0.590652 0)
(1.20979 -0.506466 0)
(1.18187 -0.439071 0)
(1.15917 -0.384282 0)
(1.14048 -0.339141 0)
(1.12489 -0.30151 0)
(1.11176 -0.269811 0)
(1.1006 -0.242859 0)
(1.47321 -0.772201 0)
(1.39459 -0.643906 0)
(1.33404 -0.545107 0)
(1.28643 -0.467413 0)
(1.24832 -0.405214 0)
(1.21733 -0.35465 0)
(1.1918 -0.31299 0)
(1.17052 -0.278261 0)
(1.15259 -0.249006 0)
(1.13735 -0.224133 0)
(1.58818 -0.688668 0)
(1.49046 -0.574251 0)
(1.4152 -0.48614 0)
(1.35602 -0.41685 0)
(1.30865 -0.36138 0)
(1.27013 -0.316286 0)
(1.2384 -0.279133 0)
(1.21195 -0.24816 0)
(1.18967 -0.22207 0)
(1.17072 -0.199887 0)
(1.68867 -0.588178 0)
(1.57425 -0.490457 0)
(1.48614 -0.415203 0)
(1.41685 -0.356024 0)
(1.36138 -0.308648 0)
(1.31629 -0.270134 0)
(1.27913 -0.238402 0)
(1.24816 -0.211949 0)
(1.22207 -0.189666 0)
(1.19989 -0.17072 0)
(1.7722 -0.473205 0)
(1.64391 -0.394586 0)
(1.54511 -0.334042 0)
(1.46741 -0.286431 0)
(1.40521 -0.248316 0)
(1.35465 -0.21733 0)
(1.31299 -0.191801 0)
(1.27826 -0.170519 0)
(1.24901 -0.152591 0)
(1.22413 -0.137349 0)
(1.83672 -0.34658 0)
(1.6977 -0.288999 0)
(1.59065 -0.244656 0)
(1.50647 -0.209785 0)
(1.43907 -0.181869 0)
(1.38428 -0.159175 0)
(1.33914 -0.140477 0)
(1.30151 -0.12489 0)
(1.26981 -0.111759 0)
(1.24286 -0.100596 0)
(1.88063 -0.211422 0)
(1.73432 -0.176296 0)
(1.62165 -0.149245 0)
(1.53305 -0.127973 0)
(1.46212 -0.110944 0)
(1.40445 -0.0971001 0)
(1.35694 -0.085694 0)
(1.31734 -0.0761854 0)
(1.28397 -0.0681757 0)
(1.25561 -0.0613656 0)
(1.90287 -0.0710571 0)
(1.75286 -0.0592515 0)
(1.63735 -0.0501602 0)
(1.5465 -0.0430108 0)
(1.47378 -0.0372874 0)
(1.41466 -0.0326346 0)
(1.36595 -0.0288011 0)
(1.32535 -0.0256053 0)
(1.29114 -0.0229133 0)
(1.26206 -0.0206245 0)
(0.0971338 -0.0710571 0)
(0.247138 -0.0592515 0)
(0.362654 -0.0501602 0)
(0.453496 -0.0430108 0)
(0.526219 -0.0372874 0)
(0.585339 -0.0326346 0)
(0.634048 -0.0288011 0)
(0.674654 -0.0256053 0)
(0.708859 -0.0229133 0)
(0.737941 -0.0206245 0)
(0.119365 -0.211422 0)
(0.265676 -0.176296 0)
(0.378348 -0.149245 0)
(0.466952 -0.127973 0)
(0.537885 -0.110944 0)
(0.595549 -0.0971001 0)
(0.643059 -0.085694 0)
(0.682665 -0.0761854 0)
(0.716028 -0.0681757 0)
(0.744394 -0.0613656 0)
(0.163281 -0.34658 0)
(0.302295 -0.288999 0)
(0.409348 -0.244656 0)
(0.493534 -0.209785 0)
(0.560929 -0.181869 0)
(0.615718 -0.159175 0)
(0.660859 -0.140477 0)
(0.69849 -0.12489 0)
(0.730189 -0.111759 0)
(0.757141 -0.100596 0)
(0.227799 -0.473205 0)
(0.356094 -0.394586 0)
(0.454893 -0.334042 0)
(0.532587 -0.286431 0)
(0.594786 -0.248316 0)
(0.64535 -0.21733 0)
(0.68701 -0.191801 0)
(0.721739 -0.170519 0)
(0.750994 -0.152591 0)
(0.775867 -0.137349 0)
(0.311332 -0.588178 0)
(0.425749 -0.490457 0)
(0.51386 -0.415203 0)
(0.58315 -0.356024 0)
(0.63862 -0.308648 0)
(0.683714 -0.270134 0)
(0.720867 -0.238402 0)
(0.75184 -0.211949 0)
(0.77793 -0.189666 0)
(0.800113 -0.17072 0)
(0.411821 -0.688668 0)
(0.509543 -0.574251 0)
(0.584797 -0.48614 0)
(0.643976 -0.41685 0)
(0.691352 -0.36138 0)
(0.729866 -0.316286 0)
(0.761598 -0.279133 0)
(0.788051 -0.24816 0)
(0.810334 -0.22207 0)
(0.82928 -0.199887 0)
(0.526794 -0.772201 0)
(0.605414 -0.643906 0)
(0.665958 -0.545107 0)
(0.713569 -0.467413 0)
(0.751684 -0.405214 0)
(0.78267 -0.35465 0)
(0.808199 -0.31299 0)
(0.829481 -0.278261 0)
(0.847409 -0.249006 0)
(0.862651 -0.224133 0)
(0.653419 -0.83672 0)
(0.711001 -0.697705 0)
(0.755344 -0.590652 0)
(0.790215 -0.506466 0)
(0.818131 -0.439071 0)
(0.840825 -0.384282 0)
(0.859523 -0.339141 0)
(0.87511 -0.30151 0)
(0.888241 -0.269811 0)
(0.899404 -0.242859 0)
(0.788578 -0.880636 0)
(0.823704 -0.734325 0)
(0.850754 -0.621653 0)
(0.872026 -0.533048 0)
(0.889056 -0.462116 0)
(0.9029 -0.404451 0)
(0.914306 -0.356941 0)
(0.923815 -0.317335 0)
(0.931824 -0.283972 0)
(0.938634 -0.255606 0)
(0.928943 -0.902868 0)
(0.940748 -0.752863 0)
(0.94984 -0.637346 0)
(0.956989 -0.546505 0)
(0.962713 -0.473782 0)
(0.967365 -0.414661 0)
(0.971199 -0.365952 0)
(0.974395 -0.325346 0)
(0.977087 -0.291141 0)
(0.979376 -0.262059 0)
(0.768411 -0.0175266 0)
(0.798532 -0.0141436 0)
(0.823143 -0.0115702 0)
(0.84351 -0.00957896 0)
(0.860555 -0.00801474 0)
(0.874961 -0.00676945 0)
(0.887246 -0.00576615 0)
(0.897807 -0.00494909 0)
(0.906952 -0.00427721 0)
(0.914923 -0.00371982 0)
(0.921912 -0.00325369 0)
(0.928075 -0.00286098 0)
(0.933536 -0.0025279 0)
(0.938398 -0.00224361 0)
(0.942746 -0.00199956 0)
(0.946649 -0.00178894 0)
(0.950166 -0.00160625 0)
(0.953347 -0.00144705 0)
(0.956233 -0.00130772 0)
(0.958859 -0.00118528 0)
(0.773644 -0.0521896 0)
(0.802397 -0.0421692 0)
(0.826061 -0.0345285 0)
(0.845755 -0.0286054 0)
(0.862313 -0.023946 0)
(0.876362 -0.0202326 0)
(0.88838 -0.0172383 0)
(0.898737 -0.0147983 0)
(0.907726 -0.0127909 0)
(0.915575 -0.0111249 0)
(0.922468 -0.00973132 0)
(0.928553 -0.008557 0)
(0.933952 -0.00756079 0)
(0.938764 -0.00671045 0)
(0.94307 -0.00598042 0)
(0.946939 -0.00535035 0)
(0.950428 -0.00480383 0)
(0.953585 -0.00432759 0)
(0.95645 -0.00391079 0)
(0.959058 -0.00354452 0)
(0.783994 -0.0856902 0)
(0.810057 -0.069415 0)
(0.831848 -0.0569437 0)
(0.850212 -0.0472397 0)
(0.865806 -0.0395844 0)
(0.879144 -0.03347 0)
(0.89063 -0.0285315 0)
(0.900584 -0.0245019 0)
(0.909262 -0.0211834 0)
(0.916868 -0.0184273 0)
(0.92357 -0.0161204 0)
(0.929503 -0.0141758 0)
(0.934779 -0.0125256 0)
(0.939491 -0.0111167 0)
(0.943715 -0.00990694 0)
(0.947516 -0.00886276 0)
(0.950947 -0.00795703 0)
(0.954056 -0.00716776 0)
(0.95688 -0.00647702 0)
(0.959454 -0.00587006 0)
(0.799233 -0.117283 0)
(0.82137 -0.0953783 0)
(0.840412 -0.0784653 0)
(0.856814 -0.0652292 0)
(0.870983 -0.0547415 0)
(0.88327 -0.0463367 0)
(0.893968 -0.0395307 0)
(0.903322 -0.0339663 0)
(0.911538 -0.029377 0)
(0.918785 -0.0255611 0)
(0.925203 -0.0223644 0)
(0.93091 -0.0196679 0)
(0.936004 -0.0173786 0)
(0.940567 -0.0154234 0)
(0.944669 -0.0137443 0)
(0.948369 -0.0122948 0)
(0.951716 -0.0110374 0)
(0.954753 -0.00994171 0)
(0.957517 -0.00898283 0)
(0.960039 -0.00814032 0)
(0.819024 -0.146263 0)
(0.83613 -0.119581 0)
(0.851617 -0.0987596 0)
(0.865466 -0.0823332 0)
(0.877774 -0.0692383 0)
(0.888682 -0.0586952 0)
(0.898345 -0.0501274 0)
(0.906913 -0.0431037 0)
(0.914523 -0.0372987 0)
(0.921297 -0.0324644 0)
(0.927343 -0.0284099 0)
(0.932753 -0.0249868 0)
(0.937607 -0.0220788 0)
(0.941976 -0.0195942 0)
(0.945918 -0.0174598 0)
(0.949486 -0.015617 0)
(0.952722 -0.0140183 0)
(0.955666 -0.0126251 0)
(0.95835 -0.011406 0)
(0.960804 -0.010335 0)
(0.84293 -0.171988 0)
(0.854067 -0.141581 0)
(0.865285 -0.117515 0)
(0.876044 -0.0983277 0)
(0.886085 -0.0829086 0)
(0.895309 -0.0704187 0)
(0.903705 -0.0602217 0)
(0.911308 -0.0518331 0)
(0.918174 -0.0448815 0)
(0.924369 -0.0390807 0)
(0.929957 -0.0342083 0)
(0.935003 -0.03009 0)
(0.939565 -0.0265888 0)
(0.943696 -0.0235957 0)
(0.947443 -0.0210235 0)
(0.950848 -0.0188023 0)
(0.95395 -0.0168751 0)
(0.95678 -0.0151958 0)
(0.959368 -0.0137264 0)
(0.961739 -0.0124356 0)
(0.870427 -0.193882 0)
(0.874858 -0.160976 0)
(0.881206 -0.134449 0)
(0.888399 -0.113009 0)
(0.895806 -0.0956021 0)
(0.903064 -0.0813929 0)
(0.909977 -0.0697243 0)
(0.916449 -0.0600826 0)
(0.922443 -0.052066 0)
(0.927957 -0.0453598 0)
(0.93301 -0.0397163 0)
(0.93763 -0.03494 0)
(0.941849 -0.0308753 0)
(0.945702 -0.0273982 0)
(0.94922 -0.0244089 0)
(0.952437 -0.0218267 0)
(0.955381 -0.0195863 0)
(0.958078 -0.0176339 0)
(0.960554 -0.0159259 0)
(0.962828 -0.0144257 0)
(0.900908 -0.211457 0)
(0.898132 -0.177413 0)
(0.899135 -0.14931 0)
(0.902362 -0.126196 0)
(0.906812 -0.107186 0)
(0.91185 -0.091518 0)
(0.917082 -0.0785578 0)
(0.92227 -0.0677904 0)
(0.927273 -0.0588013 0)
(0.932015 -0.0512587 0)
(0.93646 -0.0448972 0)
(0.940596 -0.0395044 0)
(0.944427 -0.0349099 0)
(0.947964 -0.0309765 0)
(0.951225 -0.0275931 0)
(0.954229 -0.0246698 0)
(0.956995 -0.0221331 0)
(0.959543 -0.0199227 0)
(0.961891 -0.017989 0)
(0.964057 -0.0162911 0)
(0.933708 -0.224319 0)
(0.923476 -0.190593 0)
(0.918805 -0.16188 0)
(0.917748 -0.137733 0)
(0.918966 -0.117548 0)
(0.921561 -0.10071 0)
(0.924936 -0.0866576 0)
(0.9287 -0.0749053 0)
(0.932604 -0.0650457 0)
(0.93649 -0.0567425 0)
(0.940261 -0.049721 0)
(0.943862 -0.0437572 0)
(0.947263 -0.0386695 0)
(0.950453 -0.0343098 0)
(0.95343 -0.0305577 0)
(0.956199 -0.0273148 0)
(0.958769 -0.0245004 0)
(0.961152 -0.0220482 0)
(0.963361 -0.0199033 0)
(0.965408 -0.0180204 0)
(0.968107 -0.232175 0)
(0.950446 -0.200276 0)
(0.939929 -0.171981 0)
(0.934359 -0.147491 0)
(0.932126 -0.126595 0)
(0.932086 -0.108901 0)
(0.933447 -0.0939732 0)
(0.935664 -0.0813879 0)
(0.938372 -0.0707672 0)
(0.941326 -0.0617845 0)
(0.944365 -0.0541646 0)
(0.947385 -0.0476783 0)
(0.950321 -0.0421362 0)
(0.953134 -0.0373822 0)
(0.955804 -0.0332882 0)
(0.95832 -0.0297487 0)
(0.96068 -0.0266765 0)
(0.962886 -0.0239998 0)
(0.964945 -0.021659 0)
(0.966863 -0.0196048 0)
(1 -0.220742 0)
(0.978019 -0.194748 0)
(0.963296 -0.170333 0)
(0.953949 -0.148289 0)
(0.948471 -0.128859 0)
(0.945712 -0.111983 0)
(0.944826 -0.0974512 0)
(0.945201 -0.084996 0)
(0.946403 -0.0743418 0)
(0.948124 -0.0652292 0)
(0.950153 -0.0574265 0)
(0.952343 -0.0507321 0)
(0.954594 -0.0449741 0)
(0.956839 -0.0400069 0)
(0.959035 -0.0357084 0)
(0.961154 -0.0319765 0)
(0.96318 -0.0287256 0)
(0.965103 -0.0258843 0)
(0.966922 -0.0233928 0)
(0.968634 -0.0212009 0)
(1.02198 -0.194748 0)
(1 -0.17622 0)
(0.984017 -0.157635 0)
(0.972796 -0.139985 0)
(0.965234 -0.12378 0)
(0.960415 -0.109222 0)
(0.957611 -0.096327 0)
(0.956263 -0.0850052 0)
(0.955951 -0.0751184 0)
(0.956361 -0.0665101 0)
(0.957263 -0.0590239 0)
(0.958488 -0.0525134 0)
(0.959917 -0.0468465 0)
(0.961461 -0.0419062 0)
(0.963059 -0.0375911 0)
(0.964667 -0.0338135 0)
(0.966256 -0.0304984 0)
(0.967805 -0.0275816 0)
(0.969301 -0.0250086 0)
(0.970736 -0.0227327 0)
(1.0367 -0.170333 0)
(1.01598 -0.157635 0)
(1 -0.143925 0)
(0.988018 -0.130184 0)
(0.979288 -0.117023 0)
(0.973129 -0.104783 0)
(0.968961 -0.0936215 0)
(0.966308 -0.0835768 0)
(0.964791 -0.0746169 0)
(0.964117 -0.0666705 0)
(0.964056 -0.059648 0)
(0.964437 -0.0534539 0)
(0.965128 -0.0479947 0)
(0.966032 -0.0431828 0)
(0.967074 -0.0389383 0)
(0.968201 -0.0351898 0)
(0.969372 -0.0318743 0)
(0.97056 -0.0289365 0)
(0.971742 -0.0263283 0)
(0.972904 -0.0240081 0)
(1.04605 -0.148289 0)
(1.0272 -0.139985 0)
(1.01198 -0.130184 0)
(1 -0.119758 0)
(0.990788 -0.109314 0)
(0.983872 -0.0992464 0)
(0.978813 -0.0897876 0)
(0.975229 -0.0810575 0)
(0.972801 -0.0730991 0)
(0.971267 -0.0659064 0)
(0.970416 -0.059444 0)
(0.970081 -0.0536604 0)
(0.970132 -0.048497 0)
(0.970467 -0.0438934 0)
(0.971007 -0.0397909 0)
(0.971692 -0.0361344 0)
(0.972475 -0.0328736 0)
(0.973321 -0.0299627 0)
(0.974204 -0.0273611 0)
(0.975103 -0.0250325 0)
(1.05153 -0.128859 0)
(1.03477 -0.12378 0)
(1.02071 -0.117023 0)
(1.00921 -0.109314 0)
(1 -0.101204 0)
(0.992767 -0.0930821 0)
(0.987199 -0.0852126 0)
(0.983005 -0.0777585 0)
(0.979926 -0.0708107 0)
(0.977741 -0.0644093 0)
(0.976264 -0.05856 0)
(0.975344 -0.0532467 0)
(0.974855 -0.0484399 0)
(0.9747 -0.0441035 0)
(0.974798 -0.0401982 0)
(0.975086 -0.0366843 0)
(0.975515 -0.0335238 0)
(0.976047 -0.0306806 0)
(0.97665 -0.0281215 0)
(0.9773 -0.0258164 0)
(1.05429 -0.111983 0)
(1.03959 -0.109222 0)
(1.02687 -0.104783 0)
(1.01613 -0.0992464 0)
(1.00723 -0.0930821 0)
(1 -0.0866495 0)
(0.994217 -0.0802102 0)
(0.989671 -0.0739448 0)
(0.986163 -0.0679705 0)
(0.983512 -0.0623567 0)
(0.981562 -0.0571381 0)
(0.980178 -0.0523251 0)
(0.979249 -0.047912 0)
(0.978682 -0.0438825 0)
(0.9784 -0.0402142 0)
(0.978341 -0.0368813 0)
(0.978455 -0.0338571 0)
(0.978702 -0.0311147 0)
(0.979049 -0.0286285 0)
(0.979469 -0.0263742 0)
(1.05517 -0.0974512 0)
(1.04239 -0.096327 0)
(1.03104 -0.0936215 0)
(1.02119 -0.0897876 0)
(1.0128 -0.0852126 0)
(1.00578 -0.0802102 0)
(1 -0.0750233 0)
(0.995304 -0.0698321 0)
(0.991547 -0.064764 0)
(0.988587 -0.0599048 0)
(0.986296 -0.0553077 0)
(0.984561 -0.051002 0)
(0.983284 -0.0469995 0)
(0.982381 -0.0432999 0)
(0.981781 -0.0398945 0)
(0.981425 -0.0367697 0)
(0.981264 -0.0339087 0)
(0.981258 -0.031293 0)
(0.981374 -0.028904 0)
(0.981585 -0.0267229 0)
(1.0548 -0.084996 0)
(1.04374 -0.0850052 0)
(1.03369 -0.0835768 0)
(1.02477 -0.0810575 0)
(1.017 -0.0777585 0)
(1.01033 -0.0739448 0)
(1.0047 -0.0698321 0)
(1 -0.0655892 0)
(0.996135 -0.0613434 0)
(0.992995 -0.0571868 0)
(0.990477 -0.0531832 0)
(0.98849 -0.0493738 0)
(0.986948 -0.0457829 0)
(0.985779 -0.0424221 0)
(0.98492 -0.0392938 0)
(0.984315 -0.0363942 0)
(0.98392 -0.0337148 0)
(0.983694 -0.0312447 0)
(0.983606 -0.0289715 0)
(0.983629 -0.0268817 0)
(1.0536 -0.0743418 0)
(1.04405 -0.0751184 0)
(1.03521 -0.0746169 0)
(1.0272 -0.0730991 0)
(1.02007 -0.0708107 0)
(1.01384 -0.0679705 0)
(1.00845 -0.064764 0)
(1.00386 -0.0613434 0)
(1 -0.0578288 0)
(0.996781 -0.0543123 0)
(0.99413 -0.0508616 0)
(0.991973 -0.0475249 0)
(0.99024 -0.0443346 0)
(0.988869 -0.0413107 0)
(0.987805 -0.0384639 0)
(0.986997 -0.0357978 0)
(0.986406 -0.0333113 0)
(0.985993 -0.0309996 0)
(0.985729 -0.0288555 0)
(0.985586 -0.0268704 0)
(1.05188 -0.0652292 0)
(1.04364 -0.0665101 0)
(1.03588 -0.0666705 0)
(1.02873 -0.0659064 0)
(1.02226 -0.0644093 0)
(1.01649 -0.0623567 0)
(1.01141 -0.0599048 0)
(1.00701 -0.0571868 0)
(1.00322 -0.0543123 0)
(1 -0.0513685 0)
(0.997291 -0.0484233 0)
(0.995033 -0.0455276 0)
(0.993172 -0.0427184 0)
(0.991654 -0.0400211 0)
(0.990433 -0.0374522 0)
(0.989465 -0.0350214 0)
(0.988714 -0.0327327 0)
(0.988145 -0.0305866 0)
(0.98773 -0.0285803 0)
(0.987443 -0.0267095 0)
(1.04985 -0.0574265 0)
(1.04274 -0.0590239 0)
(1.03594 -0.059648 0)
(1.02958 -0.059444 0)
(1.02374 -0.05856 0)
(1.01844 -0.0571381 0)
(1.0137 -0.0553077 0)
(1.00952 -0.0531832 0)
(1.00587 -0.0508616 0)
(1.00271 -0.0484233 0)
(1 -0.0459332 0)
(0.997698 -0.0434421 0)
(0.99576 -0.0409888 0)
(0.994144 -0.0386019 0)
(0.992809 -0.0363018 0)
(0.991718 -0.0341021 0)
(0.99084 -0.0320112 0)
(0.990143 -0.0300333 0)
(0.989602 -0.0281696 0)
(0.989194 -0.0264189 0)
(1.04766 -0.0507321 0)
(1.04151 -0.0525134 0)
(1.03556 -0.0534539 0)
(1.02992 -0.0536604 0)
(1.02466 -0.0532467 0)
(1.01982 -0.0523251 0)
(1.01544 -0.051002 0)
(1.01151 -0.0493738 0)
(1.00803 -0.0475249 0)
(1.00497 -0.0455276 0)
(1.0023 -0.0434421 0)
(1 -0.0413171 0)
(0.998028 -0.0391913 0)
(0.996352 -0.0370948 0)
(0.99494 -0.03505 0)
(0.99376 -0.0330733 0)
(0.992784 -0.0311761 0)
(0.991986 -0.0293655 0)
(0.991342 -0.0276455 0)
(0.990832 -0.0260179 0)
(1.04541 -0.0449741 0)
(1.04008 -0.0468465 0)
(1.03487 -0.0479947 0)
(1.02987 -0.048497 0)
(1.02514 -0.0484399 0)
(1.02075 -0.047912 0)
(1.01672 -0.0469995 0)
(1.01305 -0.0457829 0)
(1.00976 -0.0443346 0)
(1.00683 -0.0427184 0)
(1.00424 -0.0409888 0)
(1.00197 -0.0391913 0)
(1 -0.0373634 0)
(0.998298 -0.0355349 0)
(0.996839 -0.0337293 0)
(0.995598 -0.0319645 0)
(0.994551 -0.0302538 0)
(0.993675 -0.0286065 0)
(0.99295 -0.0270289 0)
(0.992356 -0.0255247 0)
(1.04316 -0.0400069 0)
(1.03854 -0.0419062 0)
(1.03397 -0.0431828 0)
(1.02953 -0.0438934 0)
(1.0253 -0.0441035 0)
(1.02132 -0.0438825 0)
(1.01762 -0.0432999 0)
(1.01422 -0.0424221 0)
(1.01113 -0.0413107 0)
(1.00835 -0.0400211 0)
(1.00586 -0.0386019 0)
(1.00365 -0.0370948 0)
(1.0017 -0.0355349 0)
(1 -0.0339512 0)
(0.99852 -0.032367 0)
(0.997243 -0.0308011 0)
(0.996147 -0.0292676 0)
(0.995214 -0.0277774 0)
(0.994426 -0.0263384 0)
(0.993766 -0.024956 0)
(1.04096 -0.0357084 0)
(1.03694 -0.0375911 0)
(1.03293 -0.0389383 0)
(1.02899 -0.0397909 0)
(1.0252 -0.0401982 0)
(1.0216 -0.0402142 0)
(1.01822 -0.0398945 0)
(1.01508 -0.0392938 0)
(1.0122 -0.0384639 0)
(1.00957 -0.0374522 0)
(1.00719 -0.0363018 0)
(1.00506 -0.03505 0)
(1.00316 -0.0337293 0)
(1.00148 -0.032367 0)
(1 -0.0309859 0)
(0.998706 -0.0296045 0)
(0.997581 -0.0282376 0)
(0.996609 -0.0268968 0)
(0.995774 -0.0255911 0)
(0.995063 -0.0243271 0)
(1.03885 -0.0319765 0)
(1.03533 -0.0338135 0)
(1.0318 -0.0351898 0)
(1.02831 -0.0361344 0)
(1.02491 -0.0366843 0)
(1.02166 -0.0368813 0)
(1.01857 -0.0367697 0)
(1.01568 -0.0363942 0)
(1.013 -0.0357978 0)
(1.01053 -0.0350214 0)
(1.00828 -0.0341021 0)
(1.00624 -0.0330733 0)
(1.0044 -0.0319645 0)
(1.00276 -0.0308011 0)
(1.00129 -0.0296045 0)
(1 -0.0283928 0)
(0.998862 -0.0271809 0)
(0.997866 -0.0259808 0)
(0.996999 -0.0248019 0)
(0.99625 -0.0236516 0)
(1.03682 -0.0287256 0)
(1.03374 -0.0304984 0)
(1.03063 -0.0318743 0)
(1.02753 -0.0328736 0)
(1.02448 -0.0335238 0)
(1.02154 -0.0338571 0)
(1.01874 -0.0339087 0)
(1.01608 -0.0337148 0)
(1.01359 -0.0333113 0)
(1.01129 -0.0327327 0)
(1.00916 -0.0320112 0)
(1.00722 -0.0311761 0)
(1.00545 -0.0302538 0)
(1.00385 -0.0292676 0)
(1.00242 -0.0282376 0)
(1.00114 -0.0271809 0)
(1 -0.0261121 0)
(0.998993 -0.0250431 0)
(0.998108 -0.0239837 0)
(0.997332 -0.0229417 0)
(1.0349 -0.0258843 0)
(1.0322 -0.0275816 0)
(1.02944 -0.0289365 0)
(1.02668 -0.0299627 0)
(1.02395 -0.0306806 0)
(1.0213 -0.0311147 0)
(1.01874 -0.031293 0)
(1.01631 -0.0312447 0)
(1.01401 -0.0309996 0)
(1.01186 -0.0305866 0)
(1.00986 -0.0300333 0)
(1.00801 -0.0293655 0)
(1.00632 -0.0286065 0)
(1.00479 -0.0277774 0)
(1.00339 -0.0268968 0)
(1.00213 -0.0259808 0)
(1.00101 -0.0250431 0)
(1 -0.0240956 0)
(0.999106 -0.0231479 0)
(0.998314 -0.0222081 0)
(1.03308 -0.0233928 0)
(1.0307 -0.0250086 0)
(1.02826 -0.0263283 0)
(1.0258 -0.0273611 0)
(1.02335 -0.0281215 0)
(1.02095 -0.0286285 0)
(1.01863 -0.028904 0)
(1.01639 -0.0289715 0)
(1.01427 -0.0288555 0)
(1.01227 -0.0285803 0)
(1.0104 -0.0281696 0)
(1.00866 -0.0276455 0)
(1.00705 -0.0270289 0)
(1.00557 -0.0263384 0)
(1.00423 -0.0255911 0)
(1.003 -0.0248019 0)
(1.00189 -0.0239837 0)
(1.00089 -0.0231479 0)
(1 -0.0223039 0)
(0.999202 -0.0214598 0)
(1.03137 -0.0212009 0)
(1.02926 -0.0227327 0)
(1.0271 -0.0240081 0)
(1.0249 -0.0250325 0)
(1.0227 -0.0258164 0)
(1.02053 -0.0263742 0)
(1.01841 -0.0267229 0)
(1.01637 -0.0268817 0)
(1.01441 -0.0268704 0)
(1.01256 -0.0267095 0)
(1.01081 -0.0264189 0)
(1.00917 -0.0260179 0)
(1.00764 -0.0255247 0)
(1.00623 -0.024956 0)
(1.00494 -0.0243271 0)
(1.00375 -0.0236516 0)
(1.00267 -0.0229417 0)
(1.00169 -0.0222081 0)
(1.0008 -0.0214598 0)
(1 -0.0207049 0)
(1.23159 -0.0175266 0)
(1.22636 -0.0521896 0)
(1.21601 -0.0856902 0)
(1.20077 -0.117283 0)
(1.18098 -0.146263 0)
(1.15707 -0.171988 0)
(1.12957 -0.193882 0)
(1.09909 -0.211457 0)
(1.06629 -0.224319 0)
(1.03189 -0.232175 0)
(1.20147 -0.0141436 0)
(1.1976 -0.0421692 0)
(1.18994 -0.069415 0)
(1.17863 -0.0953783 0)
(1.16387 -0.119581 0)
(1.14593 -0.141581 0)
(1.12514 -0.160976 0)
(1.10187 -0.177413 0)
(1.07652 -0.190593 0)
(1.04955 -0.200276 0)
(1.17686 -0.0115702 0)
(1.17394 -0.0345285 0)
(1.16815 -0.0569437 0)
(1.15959 -0.0784653 0)
(1.14838 -0.0987596 0)
(1.13471 -0.117515 0)
(1.11879 -0.134449 0)
(1.10087 -0.14931 0)
(1.08119 -0.16188 0)
(1.06007 -0.171981 0)
(1.15649 -0.00957896 0)
(1.15424 -0.0286054 0)
(1.14979 -0.0472397 0)
(1.14319 -0.0652292 0)
(1.13453 -0.0823332 0)
(1.12396 -0.0983277 0)
(1.1116 -0.113009 0)
(1.09764 -0.126196 0)
(1.08225 -0.137733 0)
(1.06564 -0.147491 0)
(1.13945 -0.00801474 0)
(1.13769 -0.023946 0)
(1.13419 -0.0395844 0)
(1.12902 -0.0547415 0)
(1.12223 -0.0692383 0)
(1.11392 -0.0829086 0)
(1.10419 -0.0956021 0)
(1.09319 -0.107186 0)
(1.08103 -0.117548 0)
(1.06787 -0.126595 0)
(1.12504 -0.00676945 0)
(1.12364 -0.0202326 0)
(1.12086 -0.03347 0)
(1.11673 -0.0463367 0)
(1.11132 -0.0586952 0)
(1.10469 -0.0704187 0)
(1.09694 -0.0813929 0)
(1.08815 -0.091518 0)
(1.07844 -0.10071 0)
(1.06791 -0.108901 0)
(1.11275 -0.00576615 0)
(1.11162 -0.0172383 0)
(1.10937 -0.0285315 0)
(1.10603 -0.0395307 0)
(1.10165 -0.0501274 0)
(1.0963 -0.0602217 0)
(1.09002 -0.0697243 0)
(1.08292 -0.0785578 0)
(1.07506 -0.0866576 0)
(1.06655 -0.0939732 0)
(1.10219 -0.00494909 0)
(1.10126 -0.0147983 0)
(1.09942 -0.0245019 0)
(1.09668 -0.0339663 0)
(1.09309 -0.0431037 0)
(1.08869 -0.0518331 0)
(1.08355 -0.0600826 0)
(1.07773 -0.0677904 0)
(1.0713 -0.0749053 0)
(1.06434 -0.0813879 0)
(1.09305 -0.00427721 0)
(1.09227 -0.0127909 0)
(1.09074 -0.0211834 0)
(1.08846 -0.029377 0)
(1.08548 -0.0372987 0)
(1.08183 -0.0448815 0)
(1.07756 -0.052066 0)
(1.07273 -0.0588013 0)
(1.0674 -0.0650457 0)
(1.06163 -0.0707672 0)
(1.08508 -0.00371982 0)
(1.08443 -0.0111249 0)
(1.08313 -0.0184273 0)
(1.08121 -0.0255611 0)
(1.0787 -0.0324644 0)
(1.07563 -0.0390807 0)
(1.07204 -0.0453598 0)
(1.06798 -0.0512587 0)
(1.06351 -0.0567425 0)
(1.05867 -0.0617845 0)
(1.07809 -0.00325369 0)
(1.07753 -0.00973132 0)
(1.07643 -0.0161204 0)
(1.0748 -0.0223644 0)
(1.07266 -0.0284099 0)
(1.07004 -0.0342083 0)
(1.06699 -0.0397163 0)
(1.06354 -0.0448972 0)
(1.05974 -0.049721 0)
(1.05564 -0.0541646 0)
(1.07193 -0.00286098 0)
(1.07145 -0.008557 0)
(1.0705 -0.0141758 0)
(1.06909 -0.0196679 0)
(1.06725 -0.0249868 0)
(1.065 -0.03009 0)
(1.06237 -0.03494 0)
(1.0594 -0.0395044 0)
(1.05614 -0.0437572 0)
(1.05262 -0.0476783 0)
(1.06646 -0.0025279 0)
(1.06605 -0.00756079 0)
(1.06522 -0.0125256 0)
(1.064 -0.0173786 0)
(1.06239 -0.0220788 0)
(1.06043 -0.0265888 0)
(1.05815 -0.0308753 0)
(1.05557 -0.0349099 0)
(1.05274 -0.0386695 0)
(1.04968 -0.0421362 0)
(1.0616 -0.00224361 0)
(1.06124 -0.00671045 0)
(1.06051 -0.0111167 0)
(1.05943 -0.0154234 0)
(1.05802 -0.0195942 0)
(1.0563 -0.0235957 0)
(1.0543 -0.0273982 0)
(1.05204 -0.0309765 0)
(1.04955 -0.0343098 0)
(1.04687 -0.0373822 0)
(1.05725 -0.00199956 0)
(1.05693 -0.00598042 0)
(1.05628 -0.00990694 0)
(1.05533 -0.0137443 0)
(1.05408 -0.0174598 0)
(1.05256 -0.0210235 0)
(1.05078 -0.0244089 0)
(1.04877 -0.0275931 0)
(1.04657 -0.0305577 0)
(1.0442 -0.0332882 0)
(1.05335 -0.00178894 0)
(1.05306 -0.00535035 0)
(1.05248 -0.00886276 0)
(1.05163 -0.0122948 0)
(1.05051 -0.015617 0)
(1.04915 -0.0188023 0)
(1.04756 -0.0218267 0)
(1.04577 -0.0246698 0)
(1.0438 -0.0273148 0)
(1.04168 -0.0297487 0)
(1.04983 -0.00160625 0)
(1.04957 -0.00480383 0)
(1.04905 -0.00795703 0)
(1.04828 -0.0110374 0)
(1.04728 -0.0140183 0)
(1.04605 -0.0168751 0)
(1.04462 -0.0195863 0)
(1.04301 -0.0221331 0)
(1.04123 -0.0245004 0)
(1.03932 -0.0266765 0)
(1.04665 -0.00144705 0)
(1.04642 -0.00432759 0)
(1.04594 -0.00716776 0)
(1.04525 -0.00994171 0)
(1.04433 -0.0126251 0)
(1.04322 -0.0151958 0)
(1.04192 -0.0176339 0)
(1.04046 -0.0199227 0)
(1.03885 -0.0220482 0)
(1.03711 -0.0239998 0)
(1.04377 -0.00130772 0)
(1.04355 -0.00391079 0)
(1.04312 -0.00647702 0)
(1.04248 -0.00898283 0)
(1.04165 -0.011406 0)
(1.04063 -0.0137264 0)
(1.03945 -0.0159259 0)
(1.03811 -0.017989 0)
(1.03664 -0.0199033 0)
(1.03506 -0.021659 0)
(1.04114 -0.00118528 0)
(1.04094 -0.00354452 0)
(1.04055 -0.00587006 0)
(1.03996 -0.00814032 0)
(1.0392 -0.010335 0)
(1.03826 -0.0124356 0)
(1.03717 -0.0144257 0)
(1.03594 -0.0162911 0)
(1.03459 -0.0180204 0)
(1.03314 -0.0196048 0)
(1.02062 0.262059 0)
(1.02291 0.291141 0)
(1.02561 0.325346 0)
(1.0288 0.365952 0)
(1.03263 0.414661 0)
(1.03729 0.473782 0)
(1.04301 0.546505 0)
(1.05016 0.637346 0)
(1.05925 0.752863 0)
(1.07106 0.902868 0)
(1.06137 0.255606 0)
(1.06818 0.283972 0)
(1.07619 0.317335 0)
(1.08569 0.356941 0)
(1.0971 0.404451 0)
(1.11094 0.462116 0)
(1.12797 0.533048 0)
(1.14925 0.621653 0)
(1.1763 0.734325 0)
(1.21142 0.880636 0)
(1.1006 0.242859 0)
(1.11176 0.269811 0)
(1.12489 0.30151 0)
(1.14048 0.339141 0)
(1.15917 0.384282 0)
(1.18187 0.439071 0)
(1.20979 0.506466 0)
(1.24466 0.590652 0)
(1.289 0.697705 0)
(1.34658 0.83672 0)
(1.13735 0.224133 0)
(1.15259 0.249006 0)
(1.17052 0.278261 0)
(1.1918 0.31299 0)
(1.21733 0.35465 0)
(1.24832 0.405214 0)
(1.28643 0.467413 0)
(1.33404 0.545107 0)
(1.39459 0.643906 0)
(1.47321 0.772201 0)
(1.17072 0.199887 0)
(1.18967 0.22207 0)
(1.21195 0.24816 0)
(1.2384 0.279133 0)
(1.27013 0.316286 0)
(1.30865 0.36138 0)
(1.35602 0.41685 0)
(1.4152 0.48614 0)
(1.49046 0.574251 0)
(1.58818 0.688668 0)
(1.19989 0.17072 0)
(1.22207 0.189666 0)
(1.24816 0.211949 0)
(1.27913 0.238402 0)
(1.31629 0.270134 0)
(1.36138 0.308648 0)
(1.41685 0.356024 0)
(1.48614 0.415203 0)
(1.57425 0.490457 0)
(1.68867 0.588178 0)
(1.22413 0.137349 0)
(1.24901 0.152591 0)
(1.27826 0.170519 0)
(1.31299 0.191801 0)
(1.35465 0.21733 0)
(1.40521 0.248316 0)
(1.46741 0.286431 0)
(1.54511 0.334042 0)
(1.64391 0.394586 0)
(1.7722 0.473205 0)
(1.24286 0.100596 0)
(1.26981 0.111759 0)
(1.30151 0.12489 0)
(1.33914 0.140477 0)
(1.38428 0.159175 0)
(1.43907 0.181869 0)
(1.50647 0.209785 0)
(1.59065 0.244656 0)
(1.6977 0.288999 0)
(1.83672 0.34658 0)
(1.25561 0.0613656 0)
(1.28397 0.0681757 0)
(1.31734 0.0761854 0)
(1.35694 0.085694 0)
(1.40445 0.0971001 0)
(1.46212 0.110944 0)
(1.53305 0.127973 0)
(1.62165 0.149245 0)
(1.73432 0.176296 0)
(1.88063 0.211422 0)
(1.26206 0.0206245 0)
(1.29114 0.0229133 0)
(1.32535 0.0256053 0)
(1.36595 0.0288011 0)
(1.41466 0.0326346 0)
(1.47378 0.0372874 0)
(1.5465 0.0430108 0)
(1.63735 0.0501602 0)
(1.75286 0.0592515 0)
(1.90287 0.0710571 0)
(0.737941 0.0206245 0)
(0.708859 0.0229133 0)
(0.674654 0.0256053 0)
(0.634048 0.0288011 0)
(0.585339 0.0326346 0)
(0.526219 0.0372874 0)
(0.453496 0.0430108 0)
(0.362654 0.0501602 0)
(0.247138 0.0592515 0)
(0.0971338 0.0710571 0)
(0.744394 0.0613656 0)
(0.716028 0.0681757 0)
(0.682665 0.0761854 0)
(0.643059 0.085694 0)
(0.595549 0.0971001 0)
(0.537885 0.110944 0)
(0.466952 0.127973 0)
(0.378348 0.149245 0)
(0.265676 0.176296 0)
(0.119365 0.211422 0)
(0.757141 0.100596 0)
(0.730189 0.111759 0)
(0.69849 0.12489 0)
(0.660859 0.140477 0)
(0.615718 0.159175 0)
(0.560929 0.181869 0)
(0.493534 0.209785 0)
(0.409348 0.244656 0)
(0.302295 0.288999 0)
(0.163281 0.34658 0)
(0.775867 0.137349 0)
(0.750994 0.152591 0)
(0.721739 0.170519 0)
(0.68701 0.191801 0)
(0.64535 0.21733 0)
(0.594786 0.248316 0)
(0.532587 0.286431 0)
(0.454893 0.334042 0)
(0.356094 0.394586 0)
(0.227799 0.473205 0)
(0.800113 0.17072 0)
(0.77793 0.189666 0)
(0.75184 0.211949 0)
(0.720867 0.238402 0)
(0.683714 0.270134 0)
(0.63862 0.308648 0)
(0.58315 0.356024 0)
(0.51386 0.415203 0)
(0.425749 0.490457 0)
(0.311332 0.588178 0)
(0.82928 0.199887 0)
(0.810334 0.22207 0)
(0.788051 0.24816 0)
(0.761598 0.279133 0)
(0.729866 0.316286 0)
(0.691352 0.36138 0)
(0.643976 0.41685 0)
(0.584797 0.48614 0)
(0.509543 0.574251 0)
(0.411821 0.688668 0)
(0.862651 0.224133 0)
(0.847409 0.249006 0)
(0.829481 0.278261 0)
(0.808199 0.31299 0)
(0.78267 0.35465 0)
(0.751684 0.405214 0)
(0.713569 0.467413 0)
(0.665958 0.545107 0)
(0.605414 0.643906 0)
(0.526794 0.772201 0)
(0.899404 0.242859 0)
(0.888241 0.269811 0)
(0.87511 0.30151 0)
(0.859523 0.339141 0)
(0.840825 0.384282 0)
(0.818131 0.439071 0)
(0.790215 0.506466 0)
(0.755344 0.590652 0)
(0.711001 0.697705 0)
(0.653419 0.83672 0)
(0.938634 0.255606 0)
(0.931824 0.283972 0)
(0.923815 0.317335 0)
(0.914306 0.356941 0)
(0.9029 0.404451 0)
(0.889056 0.462116 0)
(0.872026 0.533048 0)
(0.850754 0.621653 0)
(0.823704 0.734325 0)
(0.788578 0.880636 0)
(0.979376 0.262059 0)
(0.977087 0.291141 0)
(0.974395 0.325346 0)
(0.971199 0.365952 0)
(0.967365 0.414661 0)
(0.962713 0.473782 0)
(0.956989 0.546505 0)
(0.94984 0.637346 0)
(0.940748 0.752863 0)
(0.928943 0.902868 0)
(0.958859 0.00118528 0)
(0.956233 0.00130772 0)
(0.953347 0.00144705 0)
(0.950166 0.00160625 0)
(0.946649 0.00178894 0)
(0.942746 0.00199956 0)
(0.938398 0.00224361 0)
(0.933536 0.0025279 0)
(0.928075 0.00286098 0)
(0.921912 0.00325369 0)
(0.914923 0.00371982 0)
(0.906952 0.00427721 0)
(0.897807 0.00494909 0)
(0.887246 0.00576615 0)
(0.874961 0.00676945 0)
(0.860555 0.00801474 0)
(0.84351 0.00957896 0)
(0.823143 0.0115702 0)
(0.798532 0.0141436 0)
(0.768411 0.0175266 0)
(0.959058 0.00354452 0)
(0.95645 0.00391079 0)
(0.953585 0.00432759 0)
(0.950428 0.00480383 0)
(0.946939 0.00535035 0)
(0.94307 0.00598042 0)
(0.938764 0.00671045 0)
(0.933952 0.00756079 0)
(0.928553 0.008557 0)
(0.922468 0.00973132 0)
(0.915575 0.0111249 0)
(0.907726 0.0127909 0)
(0.898737 0.0147983 0)
(0.88838 0.0172383 0)
(0.876362 0.0202326 0)
(0.862313 0.023946 0)
(0.845755 0.0286054 0)
(0.826061 0.0345285 0)
(0.802397 0.0421692 0)
(0.773644 0.0521896 0)
(0.959454 0.00587006 0)
(0.95688 0.00647702 0)
(0.954056 0.00716776 0)
(0.950947 0.00795703 0)
(0.947516 0.00886276 0)
(0.943715 0.00990694 0)
(0.939491 0.0111167 0)
(0.934779 0.0125256 0)
(0.929503 0.0141758 0)
(0.92357 0.0161204 0)
(0.916868 0.0184273 0)
(0.909262 0.0211834 0)
(0.900584 0.0245019 0)
(0.89063 0.0285315 0)
(0.879144 0.03347 0)
(0.865806 0.0395844 0)
(0.850212 0.0472397 0)
(0.831848 0.0569437 0)
(0.810057 0.069415 0)
(0.783994 0.0856902 0)
(0.960039 0.00814032 0)
(0.957517 0.00898283 0)
(0.954753 0.00994171 0)
(0.951716 0.0110374 0)
(0.948369 0.0122948 0)
(0.944669 0.0137443 0)
(0.940567 0.0154234 0)
(0.936004 0.0173786 0)
(0.93091 0.0196679 0)
(0.925203 0.0223644 0)
(0.918785 0.0255611 0)
(0.911538 0.029377 0)
(0.903322 0.0339663 0)
(0.893968 0.0395307 0)
(0.88327 0.0463367 0)
(0.870983 0.0547415 0)
(0.856814 0.0652292 0)
(0.840412 0.0784653 0)
(0.82137 0.0953783 0)
(0.799233 0.117283 0)