/*--------------------------------*- C++ -*----------------------------------*\
| =========                 |                                                 |
| \\      /  F ield         | OpenFOAM: The Open Source CFD Toolbox           |
|  \\    /   O peration     | Version:  2312                                  |
|   \\  /    A nd           | Website:  www.openfoam.com                      |
|    \\/     M anipulation  |                                                 |
\*---------------------------------------------------------------------------*/
FoamFile
{
    version     2.0;
    format      ascii;
    arch        "LSB;label=32;scalar=64";
    class       surfaceScalarField;
    location    "0.7";
    object      phi;
}
// * * * * * * * * * * * * * * * * * * * * * * * * * * * * * * * * * * * * * //

dimensions      [0 3 -1 0 0 0 0];

oriented        oriented;

internalField   nonuniform List<scalar> 
3120
(
2.53692e-09
-2.5493e-09
4.09858e-09
-1.56188e-09
2.25418e-09
1.84437e-09
-3.5558e-09
5.80996e-09
-1.31421e-08
9.5863e-09
-2.59959e-08
1.28538e-08
-4.14774e-08
1.54815e-08
-5.89099e-08
1.74325e-08
-7.76254e-08
1.87155e-08
-9.6987e-08
1.93615e-08
-1.164e-07
1.9413e-08
-1.35318e-07
1.89183e-08
-1.53247e-07
1.79286e-08
-1.69744e-07
1.64967e-08
-1.84419e-07
1.46757e-08
-1.96939e-07
1.25196e-08
-2.07022e-07
1.00826e-08
-2.14441e-07
7.41968e-09
-2.19029e-07
4.58714e-09
-2.20671e-07
1.64285e-09
-2.19318e-07
-1.3533e-09
-2.14979e-07
-4.33922e-09
-2.07728e-07
-7.25046e-09
-1.97708e-07
-1.00204e-08
-1.85127e-07
-1.25805e-08
-1.70266e-07
-1.48614e-08
-1.53473e-07
-1.67934e-08
-1.35164e-07
-1.83081e-08
-1.15825e-07
-1.93398e-08
-9.59971e-08
-1.98275e-08
-7.62801e-08
-1.9717e-08
-5.73166e-08
-1.89634e-08
-3.97815e-08
-1.7535e-08
-2.43628e-08
-1.54186e-08
-1.1733e-08
-1.26299e-08
-2.4982e-09
-9.23485e-09
2.89764e-09
-5.39587e-09
4.35998e-09
-1.46228e-09
2.56252e-09
1.79755e-09
2.56255e-09
1.61606e-09
-4.16546e-09
-1.17393e-09
1.22816e-09
-1.17228e-08
1.23934e-08
-3.10904e-08
2.51775e-08
-5.90748e-08
3.75708e-08
-9.47322e-08
4.85112e-08
-1.36713e-07
5.7462e-08
-1.83476e-07
6.41959e-08
-2.33422e-07
6.86614e-08
-2.84968e-07
7.09081e-08
-3.36601e-07
7.10457e-08
-3.86902e-07
6.92193e-08
-4.3457e-07
6.55963e-08
-4.7843e-07
6.0357e-08
-5.17444e-07
5.369e-08
-5.50714e-07
4.57898e-08
-5.77487e-07
3.68557e-08
-5.97159e-07
2.70917e-08
-6.0928e-07
1.67075e-08
-6.13556e-07
5.91885e-09
-6.09858e-07
-5.05126e-09
-5.98224e-07
-1.59725e-08
-5.78868e-07
-2.6607e-08
-5.52178e-07
-3.67107e-08
-5.18723e-07
-4.60347e-08
-4.79257e-07
-5.43283e-08
-4.34707e-07
-6.13431e-08
-3.86177e-07
-6.68379e-08
-3.34932e-07
-7.05852e-08
-2.8238e-07
-7.23788e-08
-2.30054e-07
-7.20433e-08
-1.79572e-07
-6.9446e-08
-1.32595e-07
-6.45124e-08
-9.07631e-08
-5.72503e-08
-5.56053e-08
-4.77877e-08
-2.83988e-08
-3.64413e-08
-9.955e-09
-2.38396e-08
-2.92979e-10
-1.11243e-08
1.85493e-09
-3.50301e-10
4.41753e-09
-1.66926e-09
-2.4962e-09
-1.21243e-08
1.16831e-08
-3.41085e-08
3.43776e-08
-6.84848e-08
5.95538e-08
-1.14839e-07
8.39254e-08
-1.71886e-07
1.05558e-07
-2.3779e-07
1.23366e-07
-3.10415e-07
1.3682e-07
-3.87489e-07
1.45736e-07
-4.66728e-07
1.50147e-07
-5.45912e-07
1.50229e-07
-6.22936e-07
1.46244e-07
-6.95855e-07
1.38515e-07
-7.629e-07
1.27402e-07
-8.22501e-07
1.13291e-07
-8.73295e-07
9.65845e-08
-9.14141e-07
7.77016e-08
-9.44123e-07
5.70731e-08
-9.62559e-07
3.51432e-08
-9.6901e-07
1.237e-08
-9.63287e-07
-1.0774e-08
-9.45458e-07
-3.38014e-08
-9.15854e-07
-5.62108e-08
-8.75075e-07
-7.74898e-08
-8.23992e-07
-9.71183e-08
-7.63744e-07
-1.14576e-07
-6.95738e-07
-1.29349e-07
-6.21631e-07
-1.40945e-07
-5.43311e-07
-1.48905e-07
-4.62872e-07
-1.52818e-07
-3.82568e-07
-1.52348e-07
-3.04759e-07
-1.47254e-07
-2.31839e-07
-1.37432e-07
-1.66133e-07
-1.22956e-07
-1.09767e-07
-1.04154e-07
-6.44833e-08
-8.17247e-08
-3.14009e-08
-5.6922e-08
-1.06979e-08
-3.18273e-08
-1.2399e-09
-9.80829e-09
3.1777e-09
-5.57216e-09
3.07604e-09
-2.49918e-08
3.11028e-08
-5.97168e-08
6.91026e-08
-1.09923e-07
1.0976e-07
-1.74719e-07
1.48722e-07
-2.52398e-07
1.83236e-07
-3.40686e-07
2.11654e-07
-4.36964e-07
2.33099e-07
-5.38442e-07
2.47214e-07
-6.42291e-07
2.53995e-07
-7.45737e-07
2.53675e-07
-8.4614e-07
2.46647e-07
-9.41039e-07
2.33414e-07
-1.02819e-06
2.14552e-07
-1.10559e-06
1.90692e-07
-1.1715e-06
1.62498e-07
-1.22447e-06
1.30668e-07
-1.26332e-06
9.59228e-08
-1.28718e-06
5.90073e-08
-1.2955e-06
2.0691e-08
-1.28805e-06
-1.82329e-08
-1.2649e-06
-5.69475e-08
-1.2265e-06
-9.46147e-08
-1.17361e-06
-1.3038e-07
-1.10735e-06
-1.63379e-07
-1.02917e-06
-1.92751e-07
-9.40869e-07
-2.17651e-07
-8.44541e-07
-2.37273e-07
-7.42575e-07
-2.50871e-07
-6.37602e-07
-2.57791e-07
-5.32446e-07
-2.57504e-07
-4.30047e-07
-2.49654e-07
-3.33366e-07
-2.34113e-07
-2.4527e-07
-2.11052e-07
-1.68373e-07
-1.81052e-07
-1.04853e-07
-1.45245e-07
-5.62281e-08
-1.05547e-07
-2.31138e-08
-6.49416e-08
-4.98947e-09
-2.79325e-08
-1.81171e-09
-9.47388e-09
1.255e-08
-3.81947e-08
5.98235e-08
-8.61207e-08
1.17029e-07
-1.52465e-07
1.76105e-07
-2.35658e-07
2.31915e-07
-3.33461e-07
2.81039e-07
-4.43134e-07
3.21327e-07
-5.61609e-07
3.51574e-07
-6.85648e-07
3.71253e-07
-8.11972e-07
3.80319e-07
-9.37364e-07
3.79067e-07
-1.05875e-06
3.68032e-07
-1.17325e-06
3.47919e-07
-1.27825e-06
3.19552e-07
-1.3714e-06
2.8384e-07
-1.45066e-06
2.41755e-07
-1.51431e-06
1.94318e-07
-1.56098e-06
1.4259e-07
-1.58964e-06
8.76721e-08
-1.59965e-06
3.06986e-08
-1.59072e-06
-2.71592e-08
-1.56297e-06
-8.46971e-08
-1.51691e-06
-1.40681e-07
-1.45343e-06
-1.93857e-07
-1.37385e-06
-2.42957e-07
-1.27988e-06
-2.86724e-07
-1.1736e-06
-3.23927e-07
-1.05748e-06
-3.53397e-07
-9.3429e-07
-3.74058e-07
-8.07106e-07
-3.84975e-07
-6.79207e-07
-3.85403e-07
-5.54008e-07
-3.74853e-07
-4.3495e-07
-3.5317e-07
-3.25372e-07
-3.20631e-07
-2.28353e-07
-2.7807e-07
-1.46546e-07
-2.27052e-07
-8.19872e-08
-1.70105e-07
-3.5935e-08
-1.10994e-07
-8.76087e-09
-5.51065e-08
-1.05725e-08
-1.31697e-08
2.57197e-08
-5.10538e-08
9.77076e-08
-1.12149e-07
1.78124e-07
-1.94595e-07
2.5855e-07
-2.96016e-07
3.33336e-07
-4.13545e-07
3.98569e-07
-5.43923e-07
4.51705e-07
-6.83624e-07
4.91275e-07
-8.28987e-07
5.16616e-07
-9.76334e-07
5.27666e-07
-1.12207e-06
5.248e-07
-1.26275e-06
5.08717e-07
-1.39518e-06
4.80346e-07
-1.51641e-06
4.40788e-07
-1.62384e-06
3.91261e-07
-1.71516e-06
3.33079e-07
-1.78847e-06
2.67625e-07
-1.84222e-06
1.96341e-07
-1.87527e-06
1.20722e-07
-1.88688e-06
4.23126e-08
-1.87675e-06
-3.72936e-08
-1.84498e-06
-1.1646e-07
-1.79215e-06
-1.93513e-07
-1.71926e-06
-2.66748e-07
-1.62777e-06
-3.34451e-07
-1.51957e-06
-3.9492e-07
-1.397e-06
-4.46496e-07
-1.2628e-06
-4.876e-07
-1.12007e-06
-5.16789e-07
-9.72235e-07
-5.32808e-07
-8.22972e-07
-5.34666e-07
-6.76106e-07
-5.21718e-07
-5.35517e-07
-4.93759e-07
-4.05e-07
-4.51149e-07
-2.88123e-07
-3.94948e-07
-1.88073e-07
-3.27102e-07
-1.07515e-07
-2.50664e-07
-4.84782e-08
-1.7003e-07
-1.2343e-08
-9.12416e-08
-2.29155e-08
-1.66193e-08
4.2339e-08
-6.33425e-08
1.44431e-07
-1.37338e-07
2.52119e-07
-2.35659e-07
3.56872e-07
-3.55062e-07
4.52739e-07
-4.91982e-07
5.35488e-07
-6.42583e-07
6.02307e-07
-8.02857e-07
6.51548e-07
-9.68718e-07
6.82477e-07
-1.13611e-06
6.95057e-07
-1.30109e-06
6.89781e-07
-1.45991e-06
6.67541e-07
-1.60909e-06
6.29523e-07
-1.74543e-06
5.77129e-07
-1.86609e-06
5.11921e-07
-1.96859e-06
4.35581e-07
-2.05085e-06
3.49885e-07
-2.1112e-06
2.56687e-07
-2.14839e-06
1.5791e-07
-2.16161e-06
5.55398e-08
-2.15053e-06
-4.83757e-08
-2.11526e-06
-1.51734e-07
-2.05639e-06
-2.52383e-07
-1.975e-06
-3.48138e-07
-1.87265e-06
-4.36797e-07
-1.7514e-06
-5.16176e-07
-1.61375e-06
-5.84145e-07
-1.46267e-06
-6.38679e-07
-1.30153e-06
-6.77923e-07
-1.13407e-06
-7.00267e-07
-9.64309e-07
-7.04432e-07
-7.96453e-07
-6.89574e-07
-6.34811e-07
-6.55401e-07
-4.83651e-07
-6.02309e-07
-3.4707e-07
-5.31529e-07
-2.28858e-07
-4.45313e-07
-1.32386e-07
-3.47136e-07
-6.0531e-08
-2.41885e-07
-1.56971e-08
-1.36075e-07
-3.86126e-08
-1.98516e-08
6.21906e-08
-7.50646e-08
1.99644e-07
-1.61623e-07
3.38677e-07
-2.75529e-07
4.70778e-07
-4.12647e-07
5.89857e-07
-5.68668e-07
6.91509e-07
-7.39143e-07
7.72781e-07
-9.19543e-07
8.31948e-07
-1.10535e-06
8.68281e-07
-1.29212e-06
8.81833e-07
-1.47561e-06
8.73266e-07
-1.65178e-06
8.43709e-07
-1.81689e-06
7.94638e-07
-1.96755e-06
7.27791e-07
-2.10073e-06
6.45102e-07
-2.2138e-06
5.48649e-07
-2.30455e-06
4.40628e-07
-2.37119e-06
3.23328e-07
-2.4124e-06
1.99121e-07
-2.42732e-06
7.04584e-08
-2.41556e-06
-6.01347e-08
-2.37723e-06
-1.90066e-07
-2.31293e-06
-3.16681e-07
-2.22378e-06
-4.37285e-07
-2.11142e-06
-5.4916e-07
-1.97799e-06
-6.49605e-07
-1.82615e-06
-7.35983e-07
-1.65905e-06
-8.05783e-07
-1.48028e-06
-8.56694e-07
-1.29384e-06
-8.86701e-07
-1.10409e-06
-8.94187e-07
-9.15603e-07
-8.78057e-07
-7.33132e-07
-8.37873e-07
-5.61442e-07
-7.73998e-07
-4.05208e-07
-6.87763e-07
-2.68884e-07
-5.81638e-07
-1.56604e-07
-4.59416e-07
-7.21278e-08
-3.26361e-07
-1.88598e-08
-1.89343e-07
-5.74724e-08
-2.29191e-08
8.51097e-08
-8.63256e-08
2.6305e-07
-1.85138e-07
4.3749e-07
-3.14355e-07
5.99994e-07
-4.68947e-07
7.44449e-07
-6.43837e-07
8.664e-07
-8.33925e-07
9.62869e-07
-1.03414e-06
1.03216e-06
-1.23951e-06
1.07365e-06
-1.44521e-06
1.08754e-06
-1.64669e-06
1.07474e-06
-1.83964e-06
1.03666e-06
-2.02012e-06
9.75117e-07
-2.18455e-06
8.9222e-07
-2.32975e-06
7.90302e-07
-2.45297e-06
6.71868e-07
-2.55189e-06
5.39551e-07
-2.62466e-06
3.96094e-07
-2.66987e-06
2.44336e-07
-2.68662e-06
8.72055e-08
-2.67447e-06
-7.22805e-08
-2.63351e-06
-2.31025e-07
-2.56434e-06
-3.85857e-07
-2.46807e-06
-5.33548e-07
-2.34639e-06
-6.70843e-07
-2.2015e-06
-7.94494e-07
-2.03617e-06
-9.01321e-07
-1.85367e-06
-9.88282e-07
-1.65779e-06
-1.05257e-06
-1.4528e-06
-1.09169e-06
-1.24334e-06
-1.10365e-06
-1.03438e-06
-1.08702e-06
-8.31122e-07
-1.04113e-06
-6.38868e-07
-9.66251e-07
-4.62919e-07
-8.63712e-07
-3.08444e-07
-7.36112e-07
-1.8039e-07
-5.8747e-07
-8.34169e-08
-4.23335e-07
-2.18956e-08
-2.50865e-07
-7.9368e-08
-2.58775e-08
1.10987e-07
-9.72669e-08
3.34439e-07
-2.08104e-07
5.48327e-07
-3.52423e-07
7.44312e-07
-5.24305e-07
9.16331e-07
-7.1789e-07
1.05998e-06
-9.27403e-07
1.17238e-06
-1.14721e-06
1.25197e-06
-1.37185e-06
1.2983e-06
-1.59616e-06
1.31184e-06
-1.81523e-06
1.29381e-06
-2.02454e-06
1.24597e-06
-2.21995e-06
1.17052e-06
-2.39772e-06
1.06999e-06
-2.55456e-06
9.47144e-07
-2.68763e-06
8.04932e-07
-2.79452e-06
6.46448e-07
-2.87333e-06
4.74899e-07
-2.92259e-06
2.936e-07
-2.94135e-06
1.05964e-07
-2.92914e-06
-8.4497e-08
-2.88599e-06
-2.74176e-07
-2.81247e-06
-4.59375e-07
-2.70969e-06
-6.36324e-07
-2.57933e-06
-8.01206e-07
-2.42362e-06
-9.50204e-07
-2.24538e-06
-1.07956e-06
-2.048e-06
-1.18566e-06
-1.83544e-06
-1.26513e-06
-1.61217e-06
-1.31496e-06
-1.38315e-06
-1.33267e-06
-1.15374e-06
-1.31643e-06
-9.29603e-07
-1.26527e-06
-7.16626e-07
-1.17923e-06
-5.20777e-07
-1.05956e-06
-3.47992e-07
-9.08897e-07
-2.04071e-07
-7.31391e-07
-9.45923e-08
-5.32814e-07
-2.48754e-08
-3.20581e-07
-1.04244e-07
-2.87791e-08
1.39766e-07
-1.08035e-07
4.13695e-07
-2.30768e-07
6.7106e-07
-3.90066e-07
9.03611e-07
-5.79127e-07
1.10539e-06
-7.91292e-07
1.27215e-06
-1.02009e-06
1.40118e-06
-1.2593e-06
1.49118e-06
-1.503e-06
1.54199e-06
-1.7456e-06
1.55445e-06
-1.98193e-06
1.53014e-06
-2.20722e-06
1.47127e-06
-2.41717e-06
1.38046e-06
-2.6079e-06
1.26073e-06
-2.77605e-06
1.11529e-06
-2.9187e-06
9.47579e-07
-3.0334e-06
7.61153e-07
-3.1182e-06
5.59696e-07
-3.1716e-06
3.46997e-07
-3.19258e-06
1.26951e-07
-3.18064e-06
-9.64375e-08
-3.13576e-06
-3.19055e-07
-3.05846e-06
-5.36677e-07
-2.9498e-06
-7.44987e-07
-2.81141e-06
-9.39596e-07
-2.64552e-06
-1.11609e-06
-2.45497e-06
-1.27011e-06
-2.24322e-06
-1.39741e-06
-2.01436e-06
-1.49399e-06
-1.77306e-06
-1.55626e-06
-1.52458e-06
-1.58115e-06
-1.27465e-06
-1.56635e-06
-1.02947e-06
-1.51046e-06
-7.95499e-07
-1.41319e-06
-5.79442e-07
-1.27562e-06
-3.88047e-07
-1.10029e-06
-2.28011e-07
-8.91427e-07
-1.0586e-07
-6.54965e-07
-2.78688e-08
-3.98573e-07
-1.32112e-07
-3.16699e-08
1.71436e-07
-1.18769e-07
5.00794e-07
-2.53371e-07
8.05661e-07
-4.27623e-07
1.07786e-06
-6.33827e-07
1.3116e-06
-8.64509e-07
1.50283e-06
-1.11249e-06
1.64916e-06
-1.37093e-06
1.74962e-06
-1.63344e-06
1.80449e-06
-1.89403e-06
1.81504e-06
-2.14724e-06
1.78336e-06
-2.3881e-06
1.71213e-06
-2.61215e-06
1.60451e-06
-2.81544e-06
1.46402e-06
-2.99453e-06
1.29438e-06
-3.14647e-06
1.09952e-06
-3.2688e-06
8.83485e-07
-3.35954e-06
6.5043e-07
-3.41715e-06
4.04613e-07
-3.4406e-06
1.50402e-07
-3.42932e-06
-1.07722e-07
-3.38322e-06
-3.65151e-07
-3.30275e-06
-6.17147e-07
-3.18889e-06
-8.58846e-07
-3.04321e-06
-1.08528e-06
-2.86786e-06
-1.29144e-06
-2.66567e-06
-1.4723e-06
-2.44013e-06
-1.62295e-06
-2.19541e-06
-1.73871e-06
-1.93637e-06
-1.8153e-06
-1.66853e-06
-1.84899e-06
-1.39804e-06
-1.83685e-06
-1.13158e-06
-1.77692e-06
-8.7628e-07
-1.66849e-06
-6.39593e-07
-1.51231e-06
-4.29143e-07
-1.31074e-06
-2.52579e-07
-1.06799e-06
-1.17424e-07
-7.9012e-07
-3.0941e-08
-4.85055e-07
-1.63054e-07
-3.45903e-08
2.06026e-07
-1.29594e-07
5.95798e-07
-2.76138e-07
9.52206e-07
-4.65409e-07
1.26713e-06
-6.88787e-07
1.53498e-06
-9.37959e-07
1.752e-06
-1.20501e-06
1.91621e-06
-1.48249e-06
2.02711e-06
-1.7635e-06
2.0855e-06
-2.0417e-06
2.09324e-06
-2.31133e-06
2.05298e-06
-2.56723e-06
1.96803e-06
-2.80485e-06
1.84213e-06
-3.02017e-06
1.67934e-06
-3.20973e-06
1.48394e-06
-3.37059e-06
1.26038e-06
-3.50029e-06
1.01319e-06
-3.59686e-06
7.46996e-07
-3.65876e-06
4.66513e-07
-3.68491e-06
1.76556e-07
-3.6747e-06
-1.17939e-07
-3.62795e-06
-4.11894e-07
-3.54502e-06
-7.00076e-07
-3.42678e-06
-9.77093e-07
-3.27466e-06
-1.23741e-06
-3.09073e-06
-1.47537e-06
-2.87773e-06
-1.68529e-06
-2.63913e-06
-1.86155e-06
-2.37915e-06
-1.9987e-06
-2.10277e-06
-2.09168e-06
-1.81578e-06
-2.13598e-06
-1.5247e-06
-2.12792e-06
-1.23674e-06
-2.06487e-06
-9.5972e-07
-1.94552e-06
-7.01886e-07
-1.77014e-06
-4.71799e-07
-1.54083e-06
-2.78132e-07
-1.26166e-06
-1.29476e-07
-9.38776e-07
-3.41524e-08
-5.80379e-07
-1.97206e-07
-3.75757e-08
2.43602e-07
-1.40623e-07
6.98846e-07
-2.99276e-07
1.11086e-06
-5.03711e-07
1.47157e-06
-7.44349e-07
1.77561e-06
-1.012e-06
2.01965e-06
-1.29799e-06
2.2022e-06
-1.59424e-06
2.32336e-06
-1.89335e-06
2.38461e-06
-2.18861e-06
2.3885e-06
-2.47402e-06
2.33839e-06
-2.74427e-06
2.23828e-06
-2.99472e-06
2.09258e-06
-3.22136e-06
1.90598e-06
-3.42076e-06
1.68334e-06
-3.59e-06
1.42963e-06
-3.7267e-06
1.14989e-06
-3.8289e-06
8.49196e-07
-3.89509e-06
5.32701e-07
-3.92417e-06
2.05636e-07
-3.91546e-06
-1.26647e-07
-3.86871e-06
-4.58638e-07
-3.78415e-06
-7.84644e-07
-3.66247e-06
-1.09877e-06
-3.50498e-06
-1.3949e-06
-3.31356e-06
-1.66679e-06
-3.09082e-06
-1.90803e-06
-2.84013e-06
-2.11224e-06
-2.56569e-06
-2.27314e-06
-2.27259e-06
-2.38478e-06
-1.96681e-06
-2.44176e-06
-1.65525e-06
-2.43949e-06
-1.34564e-06
-2.37448e-06
-1.04649e-06
-2.24467e-06
-7.66927e-07
-2.04971e-06
-5.16505e-07
-1.79125e-06
-3.05011e-07
-1.47315e-06
-1.42202e-07
-1.10159e-06
-3.75596e-08
-6.85022e-07
-2.34766e-07
-4.0658e-08
2.8426e-07
-1.51961e-07
8.10149e-07
-3.2297e-07
1.28187e-06
-5.42787e-07
1.69139e-06
-8.00808e-07
2.03363e-06
-1.08692e-06
2.30577e-06
-1.39165e-06
2.50693e-06
-1.70628e-06
2.63799e-06
-2.02292e-06
2.70125e-06
-2.3345e-06
2.70008e-06
-2.63481e-06
2.63871e-06
-2.91845e-06
2.52192e-06
-3.18074e-06
2.35487e-06
-3.41773e-06
2.14296e-06
-3.62606e-06
1.89166e-06
-3.80293e-06
1.60651e-06
-3.94605e-06
1.29301e-06
-4.05354e-06
9.56686e-07
-4.12393e-06
6.0309e-07
-4.15612e-06
2.37825e-07
-4.14938e-06
-1.33389e-07
-4.10335e-06
-5.04662e-07
-4.01811e-06
-8.69888e-07
-3.89417e-06
-1.22271e-06
-3.73259e-06
-1.55648e-06
-3.53505e-06
-1.86433e-06
-3.30394e-06
-2.13914e-06
-3.04246e-06
-2.37372e-06
-2.7547e-06
-2.56089e-06
-2.44578e-06
-2.6937e-06
-2.12184e-06
-2.7657e-06
-1.79009e-06
-2.77124e-06
-1.45879e-06
-2.70577e-06
-1.13717e-06
-2.56629e-06
-8.35261e-07
-2.35162e-06
-5.63715e-07
-2.06279e-06
-3.33535e-07
-1.70333e-06
-1.55773e-07
-1.27935e-06
-4.12159e-08
-7.99579e-07
-2.75982e-07
-4.3868e-08
3.28128e-07
-1.63705e-07
9.29986e-07
-3.47398e-07
1.46556e-06
-5.82873e-07
1.92686e-06
-8.58418e-07
2.30918e-06
-1.16293e-06
2.61028e-06
-1.4861e-06
2.8301e-06
-1.81856e-06
2.97045e-06
-2.15191e-06
3.0346e-06
-2.47879e-06
3.02696e-06
-2.7928e-06
2.95272e-06
-3.08851e-06
2.81762e-06
-3.36129e-06
2.62765e-06
-3.60729e-06
2.38897e-06
-3.82334e-06
2.10771e-06
-4.0068e-06
1.78996e-06
-4.15552e-06
1.44172e-06
-4.26775e-06
1.06892e-06
-4.34212e-06
6.77456e-07
-4.37754e-06
2.73241e-07
-4.37323e-06
-1.37698e-07
-4.32873e-06
-5.4916e-07
-4.24392e-06
-9.54692e-07
-4.1191e-06
-1.34753e-06
-3.95504e-06
-1.72054e-06
-3.7531e-06
-2.06626e-06
-3.51538e-06
-2.37686e-06
-3.24481e-06
-2.6443e-06
-2.94529e-06
-2.8604e-06
-2.62186e-06
-3.01714e-06
-2.28072e-06
-3.10684e-06
-1.92936e-06
-3.12259e-06
-1.57654e-06
-3.05859e-06
-1.23221e-06
-2.91062e-06
-9.07362e-07
-2.67646e-06
-6.13844e-07
-2.35631e-06
-3.64006e-07
-1.95317e-06
-1.7036e-07
-1.47299e-06
-4.51737e-08
-9.24766e-07
-3.21155e-07
-4.72374e-08
3.75366e-07
-1.75958e-07
1.05871e-06
-3.72739e-07
1.66234e-06
-6.24199e-07
2.17832e-06
-9.17407e-07
2.60239e-06
-1.24019e-06
2.93306e-06
-1.58135e-06
3.17126e-06
-1.93083e-06
3.31993e-06
-2.27979e-06
3.38355e-06
-2.62056e-06
3.36773e-06
-2.94666e-06
3.27883e-06
-3.25268e-06
3.12363e-06
-3.53414e-06
2.90912e-06
-3.78741e-06
2.64224e-06
-4.00953e-06
2.32984e-06
-4.19814e-06
1.97857e-06
-4.35132e-06
1.5949e-06
-4.46751e-06
1.18511e-06
-4.54545e-06
7.55392e-07
-4.58411e-06
3.119e-07
-4.58268e-06
-1.39122e-07
-4.54059e-06
-5.91249e-07
-4.45751e-06
-1.03777e-06
-4.33345e-06
-1.47159e-06
-4.16884e-06
-1.88516e-06
-3.96465e-06
-2.27045e-06
-3.72256e-06
-2.61896e-06
-3.44511e-06
-2.92174e-06
-3.13591e-06
-3.1696e-06
-2.79977e-06
-3.35328e-06
-2.44287e-06
-3.46374e-06
-2.07289e-06
-3.49258e-06
-1.69901e-06
-3.43247e-06
-1.33191e-06
-3.27772e-06
-9.83629e-07
-3.02474e-06
-6.67275e-07
-2.67267e-06
-3.96717e-07
-2.22373e-06
-1.86127e-07
-1.68358e-06
-4.94858e-08
-1.06141e-06
-3.70641e-07
-5.08018e-08
4.26168e-07
-1.88834e-07
1.19674e-06
-3.99187e-07
1.8727e-06
-6.67005e-07
2.44614e-06
-9.77994e-07
2.91338e-06
-1.3188e-06
3.27387e-06
-1.67728e-06
3.52975e-06
-2.04269e-06
3.68534e-06
-2.40573e-06
3.74659e-06
-2.75852e-06
3.72053e-06
-3.09458e-06
3.61488e-06
-3.40861e-06
3.43766e-06
-3.69639e-06
3.1969e-06
-3.95461e-06
2.90046e-06
-4.18068e-06
2.5559e-06
-4.37256e-06
2.17046e-06
-4.52866e-06
1.751e-06
-4.64769e-06
1.30414e-06
-4.72856e-06
8.36262e-07
-4.77034e-06
3.53682e-07
-4.77221e-06
-1.37246e-07
-4.73348e-06
-6.29979e-07
-4.6536e-06
-1.11765e-06
-4.53223e-06
-1.59296e-06
-4.36939e-06
-2.048e-06
-4.16556e-06
-2.47428e-06
-3.92189e-06
-2.86262e-06
-3.64041e-06
-3.20322e-06
-3.32424e-06
-3.48577e-06
-2.97785e-06
-3.69968e-06
-2.60723e-06
-3.83436e-06
-2.22012e-06
-3.87969e-06
-1.82607e-06
-3.82652e-06
-1.43646e-06
-3.66732e-06
-1.06438e-06
-3.39682e-06
-7.24358e-07
-3.01269e-06
-4.31955e-07
-2.51613e-06
-2.03245e-07
-1.91229e-06
-5.42076e-08
-1.21044e-06
-4.24849e-07
-5.4605e-08
4.80773e-07
-2.02469e-07
1.3446e-06
-4.26973e-07
2.0972e-06
-7.11566e-07
2.73073e-06
-1.04041e-06
3.24222e-06
-1.39884e-06
3.63229e-06
-1.77369e-06
3.90461e-06
-2.15352e-06
4.06517e-06
-2.52862e-06
4.12168e-06
-2.89099e-06
4.0829e-06
-3.23422e-06
3.95811e-06
-3.55329e-06
3.75673e-06
-3.84437e-06
3.48798e-06
-4.10459e-06
3.16068e-06
-4.33185e-06
2.78316e-06
-4.52458e-06
2.36319e-06
-4.6816e-06
1.90802e-06
-4.80197e-06
1.4245e-06
-4.88485e-06
9.19141e-07
-4.92945e-06
3.98283e-07
-4.93497e-06
-1.31721e-07
-4.90061e-06
-6.64346e-07
-4.82555e-06
-1.19271e-06
-4.70911e-06
-1.7094e-06
-4.55078e-06
-2.20633e-06
-4.35048e-06
-2.67459e-06
-4.10867e-06
-3.10442e-06
-3.82672e-06
-3.48518e-06
-3.50708e-06
-3.80541e-06
-3.15367e-06
-4.05309e-06
-2.77212e-06
-4.21591e-06
-2.37006e-06
-4.28175e-06
-1.95728e-06
-4.2393e-06
-1.54582e-06
-4.07879e-06
-1.14985e-06
-3.7928e-06
-7.8542e-07
-3.37712e-06
-4.70011e-07
-2.83154e-06
-2.21896e-07
-2.16041e-06
-5.93999e-08
-1.37294e-06
-4.84249e-07
-5.87033e-08
5.39476e-07
-2.17039e-07
1.50294e-06
-4.56386e-07
2.33655e-06
-7.58219e-07
3.03257e-06
-1.10492e-06
3.58892e-06
-1.48035e-06
4.00773e-06
-1.87027e-06
4.29452e-06
-2.2625e-06
4.4574e-06
-2.647e-06
4.50619e-06
-3.01577e-06
4.45166e-06
-3.36262e-06
4.30496e-06
-3.68296e-06
4.07708e-06
-3.97352e-06
3.77854e-06
-4.23205e-06
3.41921e-06
-4.45705e-06
3.00817e-06
-4.64758e-06
2.55371e-06
-4.80297e-06
2.06342e-06
-4.92273e-06
1.54426e-06
-5.00636e-06
1.00277e-06
-5.05325e-06
4.45176e-07
-5.06267e-06
-1.22305e-07
-5.03369e-06
-6.93321e-07
-4.96527e-06
-1.26113e-06
-4.85629e-06
-1.81838e-06
-4.70569e-06
-2.35693e-06
-4.51266e-06
-2.86762e-06
-4.27689e-06
-3.34019e-06
-3.99885e-06
-3.76322e-06
-3.68015e-06
-4.12412e-06
-3.3239e-06
-4.40934e-06
-2.93515e-06
-4.60466e-06
-2.52118e-06
-4.69571e-06
-2.09187e-06
-4.66861e-06
-1.65978e-06
-4.51088e-06
-1.24018e-06
-4.2124e-06
-8.5077e-07
-3.76652e-06
-5.11196e-07
-3.17111e-06
-2.42283e-07
-2.42932e-06
-6.51328e-08
-1.55009e-06
-5.49381e-07
-6.31723e-08
6.02648e-07
-2.32774e-07
1.67254e-06
-4.87804e-07
2.59158e-06
-8.07396e-07
3.35216e-06
-1.17186e-06
3.95338e-06
-1.56339e-06
4.39926e-06
-1.96657e-06
4.6977e-06
-2.36854e-06
4.85937e-06
-2.75901e-06
4.89666e-06
-3.13012e-06
4.82277e-06
-3.4761e-06
4.65095e-06
-3.79301e-06
4.39398e-06
-4.07831e-06
4.06384e-06
-4.33056e-06
3.67146e-06
-4.54907e-06
3.22668e-06
-4.73363e-06
2.73826e-06
-4.88423e-06
2.21403e-06
-5.00094e-06
1.66097e-06
-5.08365e-06
1.08547e-06
-5.13203e-06
4.93558e-07
-5.14544e-06
-1.08897e-07
-5.12288e-06
-7.15877e-07
-5.06304e-06
-1.32096e-06
-4.96437e-06
-1.91706e-06
-4.82515e-06
-2.49614e-06
-4.6438e-06
-3.04897e-06
-4.41902e-06
-3.56497e-06
-4.15023e-06
-4.03201e-06
-3.83793e-06
-4.43642e-06
-3.48416e-06
-4.7631e-06
-3.09307e-06
-4.99576e-06
-2.67132e-06
-5.11746e-06
-2.2286e-06
-5.11134e-06
-1.77785e-06
-4.96162e-06
-1.3354e-06
-4.65485e-06
-9.20708e-07
-4.18121e-06
-5.55851e-07
-3.53597e-06
-2.64641e-07
-2.72053e-06
-7.14902e-08
-1.74324e-06
-6.20871e-07
-6.81154e-08
6.70764e-07
-2.49987e-07
1.85441e-06
-5.21732e-07
2.86332e-06
-8.59664e-07
3.69009e-06
-1.24165e-06
4.33536e-06
-1.648e-06
4.80561e-06
-2.06202e-06
5.11173e-06
-2.47024e-06
5.26758e-06
-2.86226e-06
5.28869e-06
-3.23058e-06
5.19108e-06
-3.57011e-06
4.99048e-06
-3.87777e-06
4.70165e-06
-4.15203e-06
4.3381e-06
-4.39246e-06
3.91188e-06
-4.59935e-06
3.43356e-06
-4.77338e-06
2.9123e-06
-4.91537e-06
2.35602e-06
-5.02601e-06
1.7716e-06
-5.1057e-06
1.16517e-06
-5.15445e-06
5.42309e-07
-5.17176e-06
-9.1586e-08
-5.1566e-06
-7.3104e-07
-5.10741e-06
-1.37016e-06
-5.02215e-06
-2.00232e-06
-4.89845e-06
-2.61983e-06
-4.73381e-06
-3.21362e-06
-4.52583e-06
-3.77294e-06
-4.27266e-06
-4.28518e-06
-3.97342e-06
-4.73567e-06
-3.62877e-06
-5.10775e-06
-3.24156e-06
-5.38297e-06
-2.81749e-06
-5.54153e-06
-2.36569e-06
-5.56313e-06
-1.89926e-06
-5.42806e-06
-1.43544e-06
-5.11867e-06
-9.95538e-07
-4.62111e-06
-6.04376e-07
-3.92713e-06
-2.89258e-07
-3.03565e-06
-7.85774e-08
-1.95392e-06
-6.99449e-07
-7.36759e-08
7.44439e-07
-2.69106e-07
2.04984e-06
-5.58848e-07
3.15306e-06
-9.15769e-07
4.04701e-06
-1.31482e-06
4.73441e-06
-1.73417e-06
5.22496e-06
-2.15581e-06
5.53337e-06
-2.56573e-06
5.6775e-06
-2.95369e-06
5.67665e-06
-3.31281e-06
5.5502e-06
-3.63899e-06
5.31666e-06
-3.93034e-06
4.993e-06
-4.18659e-06
4.59435e-06
-4.40857e-06
4.13387e-06
-4.59777e-06
3.62275e-06
-4.75592e-06
3.07045e-06
-4.88476e-06
2.48486e-06
-4.98574e-06
1.87258e-06
-5.05985e-06
1.23928e-06
-5.10749e-06
5.89956e-07
-5.12839e-06
-7.06923e-08
-5.1215e-06
-7.3793e-07
-5.08504e-06
-1.40662e-06
-5.01654e-06
-2.07083e-06
-4.9129e-06
-2.72347e-06
-4.77064e-06
-3.35588e-06
-4.58614e-06
-3.95744e-06
-4.35606e-06
-4.51525e-06
-4.07787e-06
-5.01386e-06
-3.75046e-06
-5.43516e-06
-3.37499e-06
-5.75843e-06
-2.95568e-06
-5.96084e-06
-2.50068e-06
-6.01813e-06
-2.02281e-06
-5.90593e-06
-1.54005e-06
-5.60143e-06
-1.07557e-06
-5.08559e-06
-6.57252e-07
-4.34546e-06
-3.16501e-07
-3.3764e-06
-8.65306e-08
-2.18389e-06
-7.85979e-07
-8.0054e-08
8.24493e-07
-2.90718e-07
2.26051e-06
-6.00063e-07
3.46241e-06
-9.76676e-07
4.42363e-06
-1.39202e-06
5.14975e-06
-1.82183e-06
5.65477e-06
-2.24678e-06
5.95832e-06
-2.65252e-06
6.08324e-06
-3.0293e-06
6.05342e-06
-3.37125e-06
5.89215e-06
-3.67567e-06
5.62108e-06
-3.94223e-06
5.25956e-06
-4.17224e-06
4.82436e-06
-4.36804e-06
4.32966e-06
-4.53248e-06
3.7872e-06
-4.66856e-06
3.20653e-06
-4.77902e-06
2.59532e-06
-4.86617e-06
1.95973e-06
-4.93166e-06
1.30477e-06
-4.97636e-06
6.34657e-07
-5.00025e-06
-4.68038e-08
-5.00235e-06
-7.35827e-07
-4.98072e-06
-1.42825e-06
-4.93244e-06
-2.11911e-06
-4.85373e-06
-2.80218e-06
-4.74009e-06
-3.46952e-06
-4.58658e-06
-4.11096e-06
-4.38819e-06
-4.71364e-06
-4.14044e-06
-5.26161e-06
-3.8401e-06
-5.7355e-06
-3.4861e-06
-6.11244e-06
-3.0806e-06
-6.36634e-06
-2.63015e-06
-6.46857e-06
-2.14678e-06
-6.3893e-06
-1.64878e-06
-6.09943e-06
-1.16114e-06
-5.57324e-06
-7.15078e-07
-4.79152e-06
-3.46846e-07
-3.74463e-06
-9.55323e-08
-2.43521e-06
-8.81512e-07
-8.75311e-08
9.12025e-07
-3.15627e-07
2.4886e-06
-6.46588e-07
3.79337e-06
-1.04362e-06
4.82066e-06
-1.47397e-06
5.58011e-06
-1.91068e-06
6.09148e-06
-2.33318e-06
6.38082e-06
-2.72714e-06
6.47721e-06
-3.08377e-06
6.41004e-06
-3.39876e-06
6.20715e-06
-3.67131e-06
5.89363e-06
-3.90305e-06
5.4913e-06
-4.09722e-06
5.01854e-06
-4.25795e-06
4.49039e-06
-4.38967e-06
3.91892e-06
-4.4967e-06
3.31356e-06
-4.58292e-06
2.68154e-06
-4.65155e-06
2.02836e-06
-4.70495e-06
1.35817e-06
-4.7445e-06
6.74206e-07
-4.7705e-06
-2.08026e-08
-4.7821e-06
-7.24226e-07
-4.77725e-06
-1.4331e-06
-4.75268e-06
-2.14368e-06
-4.70396e-06
-2.85089e-06
-4.62562e-06
-3.54787e-06
-4.51131e-06
-4.22526e-06
-4.35428e-06
-4.87068e-06
-4.14783e-06
-5.46806e-06
-3.88619e-06
-5.99714e-06
-3.56552e-06
-6.43311e-06
-3.18522e-06
-6.74663e-06
-2.74946e-06
-6.90434e-06
-2.26866e-06
-6.87011e-06
-1.76086e-06
-6.60722e-06
-1.25257e-06
-6.08153e-06
-7.78624e-07
-5.26546e-06
-3.80933e-07
-4.14232e-06
-1.05833e-07
-2.71031e-06
-9.87345e-07
-9.65067e-08
1.00853e-06
-3.44943e-07
2.73704e-06
-7.00031e-07
4.14846e-06
-1.11811e-06
5.23874e-06
-1.56139e-06
6.02339e-06
-1.99996e-06
6.53005e-06
-2.4123e-06
6.79316e-06
-2.78466e-06
6.84958e-06
-3.10991e-06
6.73529e-06
-3.38601e-06
6.48324e-06
-3.61463e-06
6.12225e-06
-3.79989e-06
5.67656e-06
-3.94732e-06
5.16596e-06
-4.06305e-06
4.60612e-06
-4.15323e-06
4.00911e-06
-4.22362e-06
3.38394e-06
-4.27926e-06
2.73718e-06
-4.32428e-06
2.07338e-06
-4.36177e-06
1.39566e-06
-4.39365e-06
7.06085e-07
-4.42058e-06
6.131e-09
-4.44191e-06
-7.02902e-07
-4.45556e-06
-1.41945e-06
-4.45804e-06
-2.1412e-06
-4.44438e-06
-2.86456e-06
-4.40819e-06
-3.58405e-06
-4.34185e-06
-4.2916e-06
-4.23674e-06
-4.97578e-06
-4.08382e-06
-5.62098e-06
-3.87438e-06
-6.20657e-06
-3.60126e-06
-6.70624e-06
-3.26028e-06
-7.08761e-06
-2.85222e-06
-7.3124e-06
-2.38485e-06
-7.33747e-06
-1.87502e-06
-7.11705e-06
-1.35017e-06
-6.60637e-06
-8.48877e-07
-5.76676e-06
-4.19639e-07
-4.57156e-06
-1.17788e-07
-3.01216e-06
-1.10513e-06
-1.07555e-07
1.11609e-06
-3.802e-07
3.00968e-06
-7.62489e-07
4.53075e-06
-1.20195e-06
5.6782e-06
-1.65476e-06
6.47619e-06
-2.08802e-06
6.96331e-06
-2.47983e-06
7.18496e-06
-2.81794e-06
7.18769e-06
-3.09783e-06
7.01518e-06
-3.32064e-06
6.70604e-06
-3.49123e-06
6.29285e-06
-3.61674e-06
5.80207e-06
-3.7053e-06
5.25452e-06
-3.76525e-06
4.66607e-06
-3.80453e-06
4.04839e-06
-3.83032e-06
3.40974e-06
-3.84879e-06
2.75564e-06
-3.86494e-06
2.08953e-06
-3.88253e-06
1.41325e-06
-3.90401e-06
7.27561e-07
-3.93042e-06
3.25433e-08
-3.96136e-06
-6.71963e-07
-3.99487e-06
-1.38594e-06
-4.02736e-06
-2.10871e-06
-4.05351e-06
-2.83841e-06
-4.06625e-06
-3.57131e-06
-4.05678e-06
-4.30107e-06
-4.01476e-06
-5.0178e-06
-3.92873e-06
-5.70702e-06
-3.78681e-06
-6.34849e-06
-3.57792e-06
-6.91513e-06
-3.29346e-06
-7.37206e-06
-2.92962e-06
-7.67624e-06
-2.49011e-06
-7.77699e-06
-1.98914e-06
-7.61802e-06
-1.45413e-06
-7.14139e-06
-9.2711e-07
-6.29378e-06
-4.64184e-07
-5.03449e-06
-1.3191e-07
-3.34443e-06
-1.23704e-06
-1.21518e-07
1.23761e-06
-4.23527e-07
3.31169e-06
-8.36661e-07
4.94388e-06
-1.29705e-06
6.13859e-06
-1.75388e-06
6.93302e-06
-2.17155e-06
7.38099e-06
-2.52886e-06
7.54227e-06
-2.81644e-06
7.47527e-06
-3.03375e-06
7.23248e-06
-3.18615e-06
6.85845e-06
-3.28256e-06
6.38926e-06
-3.33359e-06
5.8531e-06
-3.35027e-06
5.2712e-06
-3.3432e-06
4.659e-06
-3.32207e-06
4.02727e-06
-3.29538e-06
3.38304e-06
-3.27023e-06
2.7305e-06
-3.25239e-06
2.07169e-06
-3.24617e-06
1.40703e-06
-3.25446e-06
7.35851e-07
-3.27869e-06
5.67738e-08
-3.31876e-06
-6.31889e-07
-3.37296e-06
-1.33174e-06
-3.43779e-06
-2.04388e-06
-3.50786e-06
-2.76834e-06
-3.5757e-06
-3.50347e-06
-3.63168e-06
-4.24509e-06
-3.66399e-06
-4.98549e-06
-3.65889e-06
-5.71212e-06
-3.60127e-06
-6.40611e-06
-3.47573e-06
-7.04067e-06
-3.26837e-06
-7.57942e-06
-2.96941e-06
-7.9752e-06
-2.57667e-06
-8.16973e-06
-2.09976e-06
-8.09493e-06
-1.56426e-06
-7.67688e-06
-1.01493e-06
-6.84311e-06
-5.16285e-07
-5.53313e-06
-1.48961e-07
-3.71176e-06
-1.386e-06
-1.39655e-07
1.37726e-06
-4.77892e-07
3.64993e-06
-9.25913e-07
5.3919e-06
-1.40517e-06
6.61784e-06
-1.85705e-06
7.3849e-06
-2.24431e-06
7.76825e-06
-2.5483e-06
7.84627e-06
-2.76457e-06
7.69154e-06
-2.8983e-06
7.36621e-06
-2.96041e-06
6.92056e-06
-2.96463e-06
6.39348e-06
-2.92547e-06
5.81394e-06
-2.85694e-06
5.20266e-06
-2.77181e-06
4.57387e-06
-2.68128e-06
3.93674e-06
-2.59485e-06
3.29661e-06
-2.52035e-06
2.65601e-06
-2.464e-06
2.01533e-06
-2.43047e-06
1.3735e-06
-2.42297e-06
7.28358e-07
-2.44327e-06
7.70707e-08
-2.49161e-06
-5.83551e-07
-2.56663e-06
-1.25672e-06
-2.6652e-06
-1.94531e-06
-2.78218e-06
-2.65136e-06
-2.91012e-06
-3.37552e-06
-3.03906e-06
-4.11615e-06
-3.15623e-06
-4.86832e-06
-3.24604e-06
-5.62231e-06
-3.29035e-06
-6.3618e-06
-3.26932e-06
-7.0617e-06
-3.16303e-06
-7.68571e-06
-2.9543e-06
-8.18393e-06
-2.63289e-06
-8.49114e-06
-2.20099e-06
-8.52683e-06
-1.67957e-06
-8.19829e-06
-1.11427e-06
-7.40842e-06
-5.78376e-07
-6.06902e-06
-1.70109e-07
-4.12002e-06
-1.55611e-06
-1.63907e-07
1.54117e-06
-5.47444e-07
4.03347e-06
-1.03423e-06
5.87869e-06
-1.52704e-06
7.11065e-06
-1.95948e-06
7.81733e-06
-2.29492e-06