/*--------------------------------*- C++ -*----------------------------------*\
| =========                 |                                                 |
| \\      /  F ield         | OpenFOAM: The Open Source CFD Toolbox           |
|  \\    /   O peration     | Version:  2312                                  |
|   \\  /    A nd           | Website:  www.openfoam.com                      |
|    \\/     M anipulation  |                                                 |
\*---------------------------------------------------------------------------*/
FoamFile
{
    version     2.0;
    format      ascii;
    arch        "LSB;label=32;scalar=64";
    class       volScalarField;
    location    "1.5";
    object      Co;
}
// * * * * * * * * * * * * * * * * * * * * * * * * * * * * * * * * * * * * * //

dimensions      [0 0 0 0 0 0 0];

internalField   nonuniform List<scalar> 
326144
(
0.0133781
0.0439101
0.083461
0.125368
0.164143
0.207985
0.250412
0.283387
0.305068
0.314106
0.309593
0.29144
0.260872
0.219918
0.170558
0.114069
0.0773624
0.0876709
0.13765
0.195233
0.253121
0.336705
0.422277
0.50722
0.589354
0.666063
0.734254
0.790465
0.83091
0.85216
0.851579
0.829113
0.78922
0.741235
0.694214
0.6518
0.613245
0.576991
0.542423
0.509771
0.479052
0.450398
0.423077
0.397547
0.0129416
0.0438109
0.0842639
0.128718
0.172196
0.210549
0.240493
0.259296
0.264799
0.255905
0.233231
0.199165
0.156235
0.105589
0.0579601
0.061514
0.116193
0.173272
0.248621
0.333972
0.421013
0.507819
0.592162
0.671451
0.742739
0.802777
0.848061
0.875227
0.88158
0.866654
0.833534
0.78957
0.743586
0.701289
0.663189
0.627411
0.59269
0.559066
0.527064
0.496968
0.468633
0.442003
0.416611
0.393547
0.0175442
0.0507914
0.0855652
0.119161
0.148656
0.171035
0.18288
0.180997
0.164131
0.133696
0.092948
0.0631831
0.0658862
0.102374
0.1508
0.210324
0.288359
0.369998
0.453684
0.537588
0.619543
0.69706
0.76734
0.827308
0.873722
0.903358
0.913522
0.903093
0.874315
0.833301
0.788266
0.745631
0.707363
0.671913
0.637485
0.603662
0.57096
0.539869
0.510501
0.482744
0.456402
0.431384
0.407445
0.385195
0.0200444
0.0554317
0.0878958
0.115177
0.134678
0.142891
0.135543
0.110745
0.0844004
0.0803009
0.0937226
0.131559
0.178595
0.244139
0.322019
0.403087
0.485892
0.5687
0.64948
0.725904
0.79537
0.855013
0.901829
0.932803
0.945442
0.938302
0.912833
0.874071
0.829765
0.78662
0.747616
0.711929
0.677606
0.643786
0.610809
0.57921
0.549141
0.520526
0.493297
0.4674
0.442699
0.419108
0.39644
0.375077
0.0216789
0.0580836
0.0883348
0.110022
0.120038
0.113487
0.100886
0.0962044
0.098738
0.124434
0.172711
0.244049
0.324574
0.408288
0.493566
0.578615
0.661383
0.739566
0.810643
0.871914
0.920594
0.953906
0.969528
0.966011
0.944298
0.908458
0.865581
0.822531
0.783069
0.747122
0.712908
0.679275
0.646332
0.614625
0.584336
0.55531
0.527434
0.500755
0.475324
0.451082
0.427868
0.405573
0.384085
0.363726
0.0216842
0.0571033
0.0863307
0.108469
0.12243
0.127125
0.124511
0.12036
0.152772
0.219849
0.306628
0.393553
0.4813
0.56903
0.654595
0.735671
0.809709
0.87401
0.925842
0.962609
0.982131
0.983052
0.96592
0.934117
0.89389
0.852002
0.812808
0.776996
0.74312
0.709924
0.677292
0.645742
0.615544
0.586542
0.558521
0.531459
0.50546
0.480599
0.456858
0.434134
0.412292
0.391266
0.371043
0.351934
0.0211183
0.0569154
0.0894236
0.11703
0.13713
0.146536
0.145966
0.183197
0.265782
0.362916
0.4583
0.549975
0.638038
0.721693
0.798438
0.86572
0.920905
0.961457
0.98523
0.99095
0.978882
0.951844
0.915215
0.875438
0.83718
0.801868
0.768507
0.735885
0.703738
0.672496
0.642504
0.613687
0.585823
0.558823
0.532726
0.507584
0.483418
0.460235
0.438014
0.416682
0.396155
0.376405
0.357487
0.339649
0.0183246
0.0502064
0.0814761
0.110365
0.133711
0.152829
0.203022
0.297708
0.404127
0.508491
0.606718
0.696242
0.776851
0.847781
0.906593
0.951115
0.979467
0.990376
0.983795
0.961985
0.929578
0.89257
0.855764
0.821227
0.788519
0.756597
0.725114
0.694403
0.664814
0.636339
0.608788
0.582068
0.556204
0.531207
0.507041
0.483681
0.46115
0.439481
0.418669
0.39866
0.379406
0.360902
0.343233
0.326505
0.0138871
0.0378219
0.0629042
0.0876988
0.136983
0.19896
0.305572
0.420502
0.534282
0.640105
0.733731
0.812812
0.877218
0.926663
0.960077
0.976777
0.97679
0.961481
0.934456
0.901136
0.866481
0.833172
0.80142
0.770472
0.739969
0.710145
0.68132
0.653517
0.62657
0.600381
0.574975
0.550385
0.526569
0.503461
0.481032
0.459299
0.438297
0.418055
0.398573
0.379826
0.361788
0.344477
0.327957
0.312239
0.00864759
0.0215784
0.0515313
0.0953505
0.179027
0.284794
0.404181
0.525741
0.639078
0.737114
0.816209
0.875419
0.915826
0.939081
0.946785
0.940363
0.921998
0.895405
0.865188
0.834683
0.804986
0.775854
0.747043
0.718736
0.691225
0.664565
0.638627
0.613317
0.588655
0.564688
0.541409
0.518775
0.496753
0.475328
0.454496
0.434266
0.414669
0.395742
0.377502
0.359946
0.34307
0.326907
0.311492
0.296801
0.00527774
0.0241056
0.0736878
0.151098
0.25347
0.372586
0.496008
0.611055
0.708621
0.784447
0.838285
0.872317
0.889789
0.893823
0.886891
0.871022
0.849021
0.824052
0.798208
0.772117
0.745908
0.719845
0.694236
0.669202
0.644686
0.620627
0.59705
0.574003
0.551496
0.529514
0.508052
0.487115
0.4667
0.446792
0.427385
0.4085
0.390178
0.37246
0.355376
0.338942
0.323176
0.308124
0.293789
0.280144
0.00894092
0.049538
0.120299
0.218171
0.334529
0.455731
0.567915
0.661682
0.733376
0.783726
0.815742
0.833033
0.838882
0.835132
0.823024
0.804874
0.783517
0.76078
0.737434
0.713897
0.6905
0.667402
0.644607
0.622101
0.599918
0.578107
0.556682
0.535634
0.514964
0.494697
0.474849
0.455425
0.436425
0.417852
0.399719
0.382051
0.364887
0.348272
0.332247
0.316846
0.302111
0.288092
0.274771
0.262145
0.0181059
0.077669
0.166872
0.277585
0.395701
0.505924
0.598229
0.669405
0.720724
0.75523
0.776074
0.786009
0.786547
0.77809
0.762715
0.74369
0.723211
0.702227
0.681128
0.66009
0.639165
0.618372
0.597757
0.577371
0.557232
0.537338
0.517694
0.498317
0.479226
0.460435
0.441963
0.423828
0.406051
0.388648
0.371634
0.355035
0.338886
0.323234
0.308127
0.293617
0.279767
0.266608
0.254139
0.242436
0.0275573
0.103699
0.204958
0.319165
0.430142
0.525406
0.600258
0.655477
0.693922
0.718595
0.732206
0.736644
0.73201
0.71985
0.703747
0.686097
0.667744
0.648988
0.630003
0.610923
0.591857
0.572882
0.554037
0.535334
0.516785
0.498406
0.480212
0.462209
0.444409
0.426834
0.40951
0.392464
0.375722
0.359305
0.34323
0.327519
0.3122
0.297316
0.282917
0.269065
0.258006
0.251887
0.248347
0.24518
0.0133653
0.0438715
0.0833913
0.125269
0.164015
0.207793
0.250233
0.283235
0.304956
0.31405
0.309603
0.291519
0.261017
0.220128
0.170834
0.114403
0.0775763
0.0877325
0.137407
0.194958
0.252806
0.336102
0.421661
0.506603
0.588755
0.665499
0.733746
0.790031
0.830572
0.851934
0.851477
0.829126
0.789308
0.741346
0.694316
0.651889
0.613328
0.577073
0.542504
0.509848
0.479126
0.450467
0.423143
0.397605
0.012932
0.0438043
0.0842833
0.128778
0.172306
0.210716
0.240722
0.259593
0.265173
0.256357
0.233755
0.199748
0.156862
0.106252
0.0581806
0.0610527
0.11573
0.172808
0.24788
0.333235
0.420287
0.507114
0.591491
0.670826
0.742175
0.80229
0.84767
0.874949
0.881427
0.866622
0.833596
0.78968
0.743701
0.701392
0.663286
0.627508
0.592789
0.559163
0.527157
0.497055
0.468716
0.442081
0.416689
0.393621
0.0175509
0.0508256
0.0856469
0.119302
0.148863
0.171313
0.183234
0.181431
0.164643
0.134275
0.0935803
0.0633663
0.065628
0.101875
0.150296
0.209561
0.287589
0.369229
0.452924
0.536847
0.618833
0.696393
0.766731
0.826773
0.87328
0.903028
0.913319
0.903019
0.87435
0.833402
0.78839
0.745751
0.707476
0.672028
0.637605
0.603784
0.57108
0.539984
0.51061
0.482848
0.456502
0.43148
0.407542
0.385288
0.0200551
0.055471
0.0879764
0.115308
0.134866
0.143141
0.135861
0.111132
0.0845351
0.0801638
0.0935809
0.131175
0.178187
0.243468
0.321322
0.402372
0.485169
0.567978
0.648771
0.725225
0.794738
0.854446
0.90135
0.932434
0.945202
0.938199
0.912853
0.874176
0.829908
0.786768
0.747759
0.712072
0.677754
0.643938
0.610961
0.579358
0.549283
0.520663
0.493428
0.467526
0.442822
0.419227
0.396558
0.375188
0.0216921
0.0581311
0.0884276
0.110166
0.120235
0.11374
0.100983
0.0961242
0.098661
0.124153
0.172401
0.243477
0.323964
0.407645
0.492899
0.577933
0.6607
0.738898
0.810008
0.871336
0.920097
0.953518
0.96927
0.965897
0.944321
0.908584
0.865761
0.822725
0.78326
0.747312
0.713102
0.679474
0.64653
0.614819
0.584525
0.555493
0.527611
0.500925
0.475488
0.451241
0.428023
0.405724
0.384234
0.363864
0.0216918
0.0571189
0.0863391
0.108456
0.122387
0.127049
0.124407
0.120259
0.152481
0.219324
0.306047
0.392924
0.480636
0.568342
0.653897
0.73498
0.809046
0.873398
0.92531
0.962186
0.981844
0.982921
0.965942
0.934261
0.894108
0.852247
0.813056
0.777244
0.743372
0.710182
0.677552
0.645998
0.615795
0.586788
0.558761
0.531693
0.505686
0.480818
0.45707
0.434341
0.412495
0.391464
0.371236
0.352112
0.0211308
0.0569396
0.0894398
0.11702
0.137079
0.146433
0.145842
0.18286
0.265214
0.362287
0.457612
0.549243
0.637284
0.720938
0.797707
0.865039
0.920305
0.96097
0.984888
0.990777
0.978883
0.951995
0.915466
0.875736
0.837493
0.802187
0.768833
0.736221
0.704079
0.672837
0.642841
0.614019
0.586149
0.559143
0.53304
0.50789
0.483716
0.460525
0.438298
0.416961
0.39643
0.376674
0.357747
0.339895
0.0183442
0.0502446
0.0815077
0.11037
0.133678
0.152523
0.202657
0.297085
0.40343
0.507732
0.605913
0.695415
0.776034
0.847011
0.905904
0.950545
0.979051
0.990144
0.983759
0.962131
0.929858
0.892927
0.856155
0.821634
0.788942
0.757034
0.725561
0.694855
0.665266
0.636788
0.609233
0.582507
0.556636
0.531633
0.507461
0.484094
0.461555
0.439879
0.419062
0.399049
0.37979
0.361279
0.343599
0.326856
0.0139214
0.0379051
0.0630143
0.0876089
0.136807
0.198478
0.304987
0.419817
0.533511
0.639277
0.732885
0.811993
0.876477
0.926042
0.959616
0.976508
0.976732
0.96163
0.934773
0.901564
0.866969
0.833693
0.801965
0.771038
0.740551
0.710737
0.681916
0.654116
0.627169
0.600976
0.575566
0.550971
0.527151
0.504039
0.481606
0.459869
0.438862
0.418615
0.399131
0.38038
0.362339
0.34502
0.328488
0.312754
0.00869104
0.0215814
0.0515117
0.0950849
0.178628
0.284273
0.403546
0.525017
0.638307
0.736347
0.815504
0.874829
0.915399
0.938843
0.946758
0.940554
0.922381
0.895929
0.865799
0.835343
0.805682
0.77658
0.74779
0.719499
0.691997
0.665344
0.639412
0.614104
0.589442
0.565475
0.542195
0.519561
0.497541
0.476118
0.455288
0.43506
0.415464
0.396539
0.378301
0.360748
0.343872
0.327705
0.312281
0.297573
0.00528355
0.0239905
0.0734563
0.15072
0.252936
0.37192
0.495264
0.610304
0.707933
0.783885
0.837894
0.872123
0.889801
0.894045
0.887319
0.871627
0.849751
0.824862
0.799071
0.773022
0.746847
0.720808
0.695215
0.670194
0.645689
0.62164
0.598069
0.575028
0.552528
0.530552
0.509097
0.48817
0.467765
0.447869
0.428476
0.409606
0.391298
0.373596
0.35653
0.340113
0.324361
0.30932
0.294987
0.281336
0.00889495
0.0493738
0.119977
0.217679
0.333897
0.455036
0.567251
0.661125
0.732981
0.783521
0.81574
0.833233
0.839282
0.835734
0.823809
0.805799
0.784537
0.761868
0.738574
0.715077
0.691709
0.668634
0.645858
0.623369
0.601201
0.579404
0.557993
0.536958
0.516305
0.496056
0.476229
0.456828
0.437855
0.419313
0.401215
0.383585
0.366462
0.349893
0.333918
0.318569
0.303886
0.289917
0.276638
0.264046
0.0180428
0.0774638
0.166505
0.277083
0.395145
0.505417
0.597852
0.669204
0.720717
0.755419
0.776458
0.786587
0.787332
0.77908
0.763864
0.744948
0.724545
0.703619
0.682567
0.661567
0.640673
0.619908
0.599319
0.578956
0.55884
0.53897
0.519352
0.500003
0.480944
0.46219
0.443759
0.425672
0.407949
0.390608
0.373666
0.357147
0.341089
0.325541
0.31055
0.296166
0.282452
0.269445
0.257128
0.245569
0.0274835
0.103481
0.204608
0.318747
0.429757
0.525146
0.600177
0.655601
0.694257
0.719143
0.732962
0.737622
0.733217
0.721236
0.705251
0.687686
0.669402
0.650702
0.631766
0.612728
0.593698
0.574757
0.555945
0.537276
0.518763
0.500423
0.482272
0.464318
0.446574
0.429062
0.411811
0.394848
0.378202
0.361897
0.345954
0.330396
0.315254
0.300576
0.286417
0.272843
0.259929
0.250009
0.244304
0.240321
0.0133609
0.0438592
0.0833703
0.125241
0.163979
0.207743
0.250188
0.283198
0.304931
0.314039
0.30961
0.291546
0.261064
0.220198
0.170927
0.114522
0.0776622
0.0877695
0.137313
0.194844
0.252668
0.335838
0.421375
0.506298
0.588435
0.665171
0.733417
0.789712
0.830271
0.851664
0.851245
0.828935
0.789152
0.741216
0.694203
0.65179
0.61324
0.576996
0.542435
0.509787
0.479071
0.450416
0.423096
0.397559
0.0129297
0.0438043
0.0842924
0.128801
0.172345
0.210773
0.240799
0.259695
0.265302
0.256518
0.233944
0.199962
0.1571
0.106515
0.0582668
0.0608469
0.115514
0.172583
0.24753
0.332863
0.419896
0.506706
0.591069
0.670398
0.741748
0.801875
0.847278
0.874593
0.881117
0.866365
0.833389
0.789511
0.74356
0.701271
0.663181
0.627418
0.592711
0.559095
0.527095
0.496999
0.468665
0.442033
0.416642
0.393577
0.0175508
0.0508292
0.0856598
0.119329
0.148908
0.171379
0.183326
0.181554
0.164802
0.134472
0.0938158
0.0634366
0.0655231
0.10164
0.150044
0.209178
0.287174
0.368782
0.452448
0.536346
0.618312
0.695861
0.766198
0.826252
0.872785
0.902575
0.912922
0.902687
0.874082
0.833189
0.788216
0.745606
0.707353
0.671924
0.637518
0.60371
0.571016
0.539926
0.510557
0.482799
0.456456
0.431436
0.407498
0.385246
0.0200519
0.0554638
0.087968
0.115304
0.134871
0.143164
0.135914
0.111225
0.0845847
0.0801482
0.0935576
0.131002
0.177984
0.243103
0.320906
0.401906
0.484655
0.567422
0.648182
0.724613
0.794116
0.853831
0.900761
0.931892
0.944725
0.937801
0.912537
0.873929
0.829713
0.786609
0.747627
0.711963
0.677664
0.643864
0.6109
0.579307
0.549238
0.520622
0.49339
0.467489
0.442785
0.41919
0.39652
0.375148
0.0216855
0.058118
0.0884125
0.110154
0.120235
0.113764
0.101009
0.0961453
0.0986931
0.124046
0.172253
0.243142
0.323564
0.40718
0.49237
0.577346
0.660062
0.738223
0.809313
0.87064
0.919426
0.952897
0.968726
0.965448
0.943971
0.908323
0.865567
0.822576
0.783141
0.747218
0.71303
0.679421
0.646491
0.61479
0.584504
0.555477
0.527598
0.500912
0.475473
0.451223
0.428002
0.4057
0.384204
0.363826
0.0216843
0.0570971
0.086299
0.108397
0.122311
0.126975
0.124352
0.120235
0.152314
0.218972
0.305617
0.392414
0.480049
0.567684
0.653178
0.734214
0.808251
0.872599
0.924535
0.961469
0.981218
0.98241
0.965556
0.933989
0.893922
0.85212
0.812967
0.777185
0.743339
0.71017
0.677558
0.646017
0.615822
0.58682
0.558797
0.531729
0.505719
0.480846
0.457092
0.434356
0.412502
0.391462
0.37122
0.352083
0.0211301
0.0569223
0.0893866
0.116921
0.136935
0.146269
0.145688
0.182543
0.2647
0.361684
0.456913
0.548454
0.63642
0.720018
0.796756
0.864085
0.919382
0.960116
0.984142
0.990174
0.978439
0.951701
0.91529
0.87564
0.837449
0.80218
0.768861
0.736278
0.70416
0.672935
0.64295
0.614135
0.58627
0.559264
0.533159
0.508005
0.483822
0.460621
0.438382
0.417033
0.396488
0.376714
0.357765
0.33989
0.0183612
0.0502645
0.0814978
0.11031
0.133564
0.152147
0.202208
0.296391
0.402621
0.506812
0.604893
0.694316
0.77489
0.845862
0.904794
0.949519
0.978156
0.98942
0.983234
0.961801
0.929691
0.892876
0.856178
0.82171
0.789062
0.757193
0.725755
0.695074
0.665502
0.637036
0.609487
0.582764
0.556893
0.531886
0.507707
0.484331
0.461779
0.440086
0.41925
0.399217
0.379935
0.361397
0.343683
0.326906
0.0139648
0.0380023
0.0631302
0.087714
0.136563
0.197911
0.304265
0.41893
0.532467
0.638103
0.731628
0.810707
0.875228
0.924887
0.958607
0.975695
0.976148
0.961284
0.934637
0.901584
0.867094
0.833891
0.802222
0.771346
0.740902
0.711123
0.682329
0.654548
0.627614
0.601428
0.576021
0.551425
0.527601
0.504482
0.48204
0.460289
0.439264
0.418996
0.399485
0.380705
0.36263
0.345271
0.328691
0.312906
0.00874707
0.0215813
0.051476
0.094986
0.178118
0.283575
0.402655
0.523951
0.63711
0.735085
0.814254
0.873668
0.914395
0.938044
0.946201
0.940259
0.922328
0.89607
0.866075
0.835713
0.806126
0.777086
0.748349
0.720101
0.692634
0.66601
0.640099
0.614808
0.590157
0.566195
0.542917
0.520283
0.498258
0.476829
0.455989
0.435746
0.41613
0.397179
0.37891
0.361319
0.344398
0.328174
0.312684
0.297903
0.00528739
0.0238319
0.0731391
0.150194
0.25217
0.370927
0.494103
0.60906
0.706702
0.782756
0.836937
0.871385
0.88931
0.893815
0.887352
0.871896
0.850199
0.825435
0.799738
0.773768
0.74766
0.721675
0.696127
0.671144
0.646672
0.622649
0.599101
0.576077
0.553589
0.531621
0.510171
0.489247
0.468843
0.448944
0.429545
0.410664
0.392338
0.374611
0.357511
0.341052
0.325246
0.310136
0.29572
0.281968
0.0088226
0.0491227
0.119486
0.216915
0.332888
0.453876
0.566062
0.66002
0.732041
0.782799
0.815262
0.83301
0.839318
0.836034
0.824356
0.806544
0.785426
0.762868
0.739664
0.716243
0.692937
0.669914
0.647183
0.624733
0.602599
0.580831
0.559445
0.538433
0.517799
0.497565
0.477752
0.458363
0.4394
0.420867
0.402773
0.385144
0.368015
0.351433
0.335435
0.320052
0.305319
0.29128
0.277908
0.265193
0.0179356
0.07712
0.165889
0.276219
0.394139
0.504414
0.596973
0.668524
0.720271
0.755221
0.77651
0.786894
0.787915
0.779939
0.764947
0.746194
0.725915
0.70509
0.684122
0.663193
0.642362
0.621653
0.601113
0.580793
0.560717
0.540885
0.521301
0.501985
0.482958
0.464235
0.445833
0.427776
0.410084
0.392773
0.37586
0.359369
0.343337
0.327809
0.31283
0.298445
0.28471
0.27166
0.259265
0.247591
0.0273478
0.103081
0.203956
0.31793
0.428924
0.524435
0.599678
0.655356
0.694286
0.719451
0.73355
0.738509
0.734415
0.722689
0.70688
0.689448
0.671275
0.652671
0.633819
0.614856
0.595893
0.577013
0.558257
0.539641
0.521178
0.502889
0.484788
0.466884
0.449193
0.431735
0.41454
0.397638
0.381055
0.364818
0.348948
0.333469
0.318414
0.303823
0.289749
0.276256
0.263414
0.251262
0.240498
0.233371
0.0133591
0.0438538
0.0833613
0.125229
0.163965
0.207734
0.25018
0.283192
0.304925
0.314034
0.309607
0.291546
0.261069
0.220211
0.170953
0.114564
0.0777119
0.0878102
0.137263
0.194767
0.25256
0.335642
0.42114
0.506025
0.588124
0.664827
0.733044
0.789317
0.829865
0.851258
0.85085
0.828563
0.78881
0.740908
0.693929
0.651544
0.613018
0.576794
0.54225
0.509617
0.478914
0.450271
0.42296
0.397434
0.0129288
0.0438036
0.0842941
0.128807
0.172357
0.210792
0.240826
0.259732
0.265352
0.256585
0.234029
0.200068
0.157229
0.106671
0.0583304
0.060719
0.115363
0.172405
0.247247
0.332538
0.419529
0.506297
0.590621
0.669915
0.741238
0.801348
0.846747
0.87407
0.880617
0.865901
0.832968
0.789135
0.743227
0.700975
0.662915
0.627176
0.59249
0.558891
0.526907
0.496824
0.4685
0.441879
0.416495
0.39344
0.0175492
0.0508238
0.0856512
0.119319
0.1489
0.171378
0.183337
0.181588
0.164866
0.134574
0.0939595
0.0634967
0.0654791
0.101467
0.149836
0.208846
0.286787
0.36834
0.451952
0.535797
0.617717
0.695226
0.765534
0.825573
0.872108
0.901918
0.912302
0.902118
0.873573
0.832739
0.787821
0.745256
0.70704
0.671641
0.637261
0.603476
0.5708
0.539726
0.510369
0.48262
0.456285
0.431273
0.407339
0.385096
0.0200449
0.055443
0.0879325
0.115257
0.134819
0.143119
0.135894
0.111248
0.084634
0.0801964
0.0935881
0.130867
0.177799
0.242751
0.320479
0.401403
0.484078
0.566775
0.647472
0.72385
0.793316
0.853013
0.899947
0.931106
0.94399
0.937136
0.911951
0.873419
0.829269
0.786219
0.74728
0.711651
0.677381
0.643607
0.610665
0.57909
0.549035
0.520429
0.493204
0.467308
0.442609
0.419018
0.396347
0.374981
0.0216747
0.0580915
0.0883732
0.110107
0.12019
0.11374
0.101039
0.096222
0.0987757
0.123959
0.17211
0.242793
0.323123
0.406644
0.49174
0.576626
0.65926
0.737352
0.808393
0.869695
0.918485
0.951992
0.967887
0.9647
0.943326
0.907776
0.865102
0.822173
0.782786
0.746901
0.712746
0.679164
0.646257
0.614575
0.584305
0.555289
0.527417
0.500735
0.475297
0.451047
0.427824
0.40552
0.384016
0.363636
0.021672
0.0570621
0.0862386
0.108315
0.12222
0.126895
0.124307
0.120216
0.152126
0.218567
0.305108
0.391795
0.479319
0.566849
0.652247
0.733203
0.807182
0.8715
0.923443
0.960422
0.980256
0.981567
0.964848
0.933409
0.893447
0.851722
0.812627
0.776888
0.743078
0.709942
0.677357
0.645836
0.615657
0.586667
0.558652
0.531588
0.505578
0.4807
0.456939
0.434195
0.412332
0.39128
0.371021
0.35187
0.0211271
0.0568933
0.0893071
0.116782
0.136744
0.146056
0.145469
0.182132
0.26405
0.360913
0.45601
0.547423
0.635277
0.718787
0.795464
0.862768
0.91808
0.958876
0.983013
0.989199
0.977642
0.951077
0.914808
0.875259
0.837139
0.801926
0.768653
0.736111
0.704026
0.672828
0.642862
0.614061
0.586204
0.559203
0.533098
0.507939
0.483747
0.460532
0.438278
0.41691
0.396344
0.376546
0.357566
0.339663
0.0183868
0.0502979
0.0814949
0.110244
0.133415
0.151654
0.201607
0.295483
0.401553
0.505588
0.603523
0.692828
0.773327
0.844273
0.903233
0.948043
0.976821
0.988279
0.982321
0.961118
0.929203
0.89253
0.85593
0.821533
0.788944
0.75713
0.725738
0.695093
0.665547
0.637099
0.609562
0.582845
0.556974
0.531963
0.507776
0.484387
0.461816
0.4401
0.419236
0.399171
0.379854
0.361274
0.343512
0.326689
0.0140209
0.0381271
0.0632782
0.0878449
0.136234
0.197164
0.303307
0.417745
0.531062
0.636514
0.72991
0.808931
0.873478
0.923236
0.957118
0.974432
0.975154
0.960569
0.934172
0.90131
0.866954
0.833845
0.802252
0.771441
0.741055
0.711325
0.682568
0.654813
0.627897
0.601723
0.57632
0.551723
0.527893
0.504764
0.482306
0.460534
0.439481
0.419177
0.399625
0.380798
0.362669
0.345247
0.328596
0.312738
0.00881647
0.0215703
0.0514133
0.0948389
0.177431
0.282634
0.401451
0.522503
0.635472
0.733342
0.812502
0.872005
0.912911
0.936797
0.945239
0.939607
0.921963
0.895938
0.866107
0.835861
0.806368
0.777406
0.748737
0.720546
0.693126
0.666539
0.640657
0.615386
0.590749
0.566794
0.543517
0.520877
0.498842
0.477398
0.456537
0.436266
0.416613
0.397614
0.37929
0.361634
0.344637
0.328326
0.312735
0.297845
0.00528542
0.0236061
0.0726978
0.149471
0.251126
0.369577
0.492518
0.607349
0.704984
0.781144
0.835521
0.870225
0.888439
0.89325
0.887098
0.87192
0.850435
0.825821
0.800237
0.774363
0.748339
0.722422
0.696932
0.671998
0.647566
0.623577
0.600055
0.577051
0.554575
0.532613
0.511162
0.490231
0.469815
0.4499
0.430477
0.411563
0.393194
0.375412
0.358244
0.341704
0.3258
0.310573
0.296022
0.282116
0.00871767
0.0487673
0.118804
0.215863
0.331501
0.452273
0.564401
0.658443
0.730653
0.781665
0.814415
0.83246
0.839071
0.836098
0.824709
0.807129
0.786184
0.763759
0.740665
0.717337
0.694107
0.671147
0.648472
0.626069
0.603975
0.58224
0.560881
0.539889
0.519269
0.499044
0.479233
0.459842
0.440871
0.422324
0.404209
0.386549
0.369378
0.352738
0.336668
0.321193
0.306345
0.292166
0.278625
0.265702
0.0177823
0.0766359
0.165029
0.275016
0.39273
0.502983
0.595676
0.667455
0.719474
0.754712
0.776291
0.786971
0.788313
0.78066
0.765933
0.747374
0.727243
0.706537
0.68567
0.664827
0.644071
0.623428
0.602945
0.582675
0.562642
0.542846
0.523294
0.504006
0.485001
0.466296
0.447909
0.42986
0.41217
0.394857
0.377935
0.361427
0.345365
0.329792
0.31475
0.300277
0.286424
0.273225
0.260641
0.248709
0.0271539
0.102513
0.203032
0.316763
0.427705
0.523343
0.598826
0.6548
0.694048
0.719539
0.733963
0.739268
0.735541
0.724114
0.708513
0.691236
0.673193
0.654702
0.635949
0.617073
0.598188
0.579376
0.560682
0.542121
0.523709
0.505466
0.487409
0.469546
0.451892
0.43447
0.417307
0.400433
0.383875
0.367659
0.351807
0.33634
0.321288
0.306688
0.292585
0.279035
0.266098
0.253798
0.242122
0.231096
0.0133584
0.0438507
0.0833546
0.125218
0.163951
0.207725
0.250172
0.283184
0.304919
0.314031
0.309608
0.291554
0.261086
0.220239
0.170996
0.114626
0.0777661
0.0878399
0.137191
0.194665
0.252421
0.335401
0.420855
0.505693
0.587746
0.664404
0.732581
0.788821
0.829346
0.850727
0.850325
0.828057
0.788337
0.740478
0.693542
0.651195
0.612698
0.576498
0.541975
0.509362
0.478676
0.45005
0.422751
0.397242
0.0129303
0.0438082
0.084302
0.128818
0.172373
0.210813
0.240854
0.259769
0.265403
0.256654
0.234119
0.200182
0.157369
0.106841
0.0583969
0.0605693
0.115182
0.17219
0.24691
0.332152
0.41909
0.505805
0.590078
0.669326
0.74061
0.800691
0.846074
0.873398
0.879964
0.865282
0.832398
0.78862
0.742765
0.700559
0.662535
0.626826
0.592164
0.558588
0.526622
0.496556
0.468246
0.441639
0.416265
0.393227
0.0175499
0.050825
0.0856522
0.119321
0.148904
0.171388
0.183361
0.181635
0.164945
0.134691
0.0941201
0.063566
0.0654322
0.101268
0.149593
0.208456
0.286332
0.367818
0.451361
0.535141
0.616999
0.694454
0.76472
0.824731
0.871258
0.901082
0.911502
0.901373
0.872894
0.832132
0.78728
0.744772
0.7066
0.671236
0.636885
0.603126
0.570474
0.539418
0.510075
0.482339
0.456014
0.431013
0.407086
0.384858
0.0200398
0.0554279
0.0879059
0.115221
0.134779
0.143088
0.135888
0.111284
0.0846969
0.0802519
0.0936204
0.130705
0.177576
0.242331
0.319971
0.400803
0.483386
0.565995
0.646611
0.722921
0.792334
0.852001
0.89893
0.930113
0.943051
0.936275
0.911181
0.872739
0.828669
0.785683
0.746795
0.711205
0.676968
0.643223
0.610306
0.578752
0.548714
0.520121
0.492904
0.467015
0.442321
0.418737
0.396066
0.374712
0.0216658
0.0580712
0.0883439
0.110073
0.120159
0.11373
0.101083
0.0963067
0.0988616
0.123845
0.171927
0.242368
0.322588
0.405994
0.490974
0.575749
0.658281
0.736285
0.80726
0.868525
0.917312
0.950854
0.966821
0.963738
0.942484
0.907051
0.864474
0.821619
0.782286
0.746444
0.712324
0.678772
0.645891
0.614231
0.583978
0.554975
0.527111
0.500433
0.474996
0.450746
0.427522
0.405216
0.383705
0.363328
0.0216616
0.057032
0.0861844
0.108239
0.122134
0.126813
0.124244
0.120178
0.151886
0.218071
0.304485
0.391038
0.478428
0.565828
0.651109
0.731964
0.805867
0.870144
0.922087
0.959115
0.979045
0.980494
0.963932
0.932645
0.892806
0.851172
0.812139
0.776447
0.742677
0.709575
0.67702
0.645521
0.615359
0.586381
0.558374
0.531313
0.505302
0.480418
0.456649
0.433895
0.412021
0.390958
0.370678
0.351517
0.0211277
0.0568702
0.0892313
0.116642
0.136544
0.145811
0.145213
0.181629
0.263261
0.359974
0.454909
0.546165
0.633884
0.717283
0.793883
0.861152
0.916477
0.957342
0.981607
0.987971
0.976623
0.950262
0.914157
0.874726
0.836684
0.80153
0.768306
0.735805
0.703757
0.672587
0.642641
0.613852
0.586002
0.559004
0.532897
0.507731
0.483527
0.460296
0.438021
0.416632
0.396042
0.376217
0.357201
0.339272
0.0184188
0.0503408
0.0814935
0.110162
0.133231
0.151058
0.200893
0.294398
0.400271
0.504113
0.60187
0.691031
0.771434
0.842345
0.901334
0.94624
0.975181
0.986863
0.981171
0.960234
0.928545
0.892035
0.855541
0.821219
0.788693
0.756935
0.72559
0.694981
0.665461
0.63703
0.609503
0.582788
0.556915
0.531897
0.507698
0.484291
0.461696
0.439951
0.419053
0.398951
0.379592
0.360966
0.343149
0.326278
0.0140866
0.038274
0.0634518
0.0879961
0.135826
0.196258
0.302148
0.416312
0.529363
0.634591
0.727833
0.806782
0.871357
0.921229
0.9553
0.972876
0.97391
0.959648
0.93354
0.900895
0.866685
0.833674
0.802159
0.771417
0.741091
0.711407
0.682685
0.654954
0.628054
0.601887
0.576485
0.551881
0.528039
0.504893
0.482414
0.460612
0.439523
0.419176
0.399574
0.38069
0.362498
0.345006
0.328275
0.312338
0.00889445
0.0216414
0.0513266
0.0946597
0.176609
0.281507
0.400006
0.520765
0.633507
0.731248
0.810396
0.870001
0.911112
0.935271
0.944041
0.938763
0.921448
0.895683
0.866033
0.83591
0.80651
0.777626
0.749025
0.720891
0.693514
0.666959
0.641101
0.615846
0.591217
0.567262
0.543977
0.521323
0.499269
0.4778
0.456908
0.436598
0.416896
0.397839
0.379446
0.361712
0.344627
0.328214
0.312511
0.297503
0.00527827
0.0234206
0.0721597
0.148596
0.24987
0.367958
0.490621
0.605302
0.702931
0.779214
0.833817
0.868814
0.887357
0.892515
0.886712
0.871843
0.850588
0.826134
0.800664
0.774886
0.748942
0.723091
0.697654
0.672763
0.648365
0.624402
0.600899
0.577904
0.555431
0.533464
0.512001
0.491051
0.470611
0.450665
0.431203
0.412241
0.393812
0.375956
0.358701
0.34206
0.326038
0.310676
0.295974
0.2819
0.00858877
0.0483346
0.11798
0.214601
0.329844
0.450364
0.562423
0.656563
0.728991
0.780293
0.813367
0.831747
0.838692
0.83606
0.824987
0.807658
0.786893
0.764604
0.741619
0.718377
0.695217
0.672313
0.649685
0.627321
0.605256
0.583544
0.562199
0.541215
0.520595
0.500363
0.480539
0.461127
0.44213
0.423547
0.405389
0.387675
0.370435
0.353711
0.337538
0.321942
0.306948
0.292599
0.278862
0.265716
0.0175969
0.0760532
0.164001
0.273584
0.391054
0.501279
0.594124
0.666161
0.718486
0.754044
0.775943
0.786946
0.788634
0.781332
0.766888
0.748531
0.728548
0.707958
0.687184
0.66642
0.645729
0.62514
0.604702
0.584468
0.564464
0.54469
0.525153
0.505874
0.486873
0.468165
0.449767
0.431701
0.413987
0.39664
0.379675
0.363113
0.346983
0.331323
0.316171
0.301564
0.287544
0.274147
0.261326
0.249095
0.0269213
0.101835
0.201931
0.315374
0.42625
0.522027
0.597776
0.654078
0.693677
0.719524
0.734301
0.739979
0.736643
0.725535
0.710149
0.693024
0.675104
0.656716
0.638052
0.619251
0.600429
0.581672
0.563023
0.5445
0.52612
0.507904
0.489867
0.47202
0.454377
0.43696
0.419796
0.402914
0.386341
0.370101
0.354217
0.338707
0.323596
0.308918
0.294713
0.281029
0.26792
0.255401
0.243451
0.232091
0.0133579
0.0438481
0.0833479
0.125207
0.163936
0.207712
0.250157
0.283169
0.304905
0.31402
0.309604
0.29156
0.261104
0.220271
0.171045
0.114696
0.0778215
0.0878622
0.137103
0.194544
0.252259
0.335126
0.420529
0.505313
0.587312
0.663919
0.732048
0.788248
0.828743
0.850109
0.849707
0.827457
0.787771
0.739959
0.693073
0.650767
0.612304
0.576131
0.541633
0.509042
0.478376
0.44977
0.422486
0.396999
0.0129322
0.043813
0.0843089
0.128827
0.172383
0.210826
0.240872
0.259796
0.265443
0.256714
0.234204
0.200293
0.15751
0.107015
0.0584635
0.0604018
0.114978
0.171947
0.246532
0.331715
0.418594
0.505248
0.589463
0.668657
0.739895
0.799941
0.845303
0.872624
0.879205
0.864559
0.831726
0.788006
0.74221
0.700054
0.66207
0.626393
0.591759
0.558207
0.526264
0.496218
0.467925
0.441336
0.415973
0.392957
0.0175507
0.0508258
0.0856516
0.119319
0.148903
0.171392
0.183378
0.181675
0.165018
0.134807
0.0942832
0.0636372
0.0653826
0.101049
0.149322
0.208023
0.285825
0.367234
0.4507
0.534404
0.616192
0.693585
0.763801
0.82378
0.870294
0.900128
0.910584
0.900511
0.872104
0.831418
0.786638
0.74419
0.706065
0.670738
0.63642
0.60269
0.570063
0.539028
0.509703
0.481982
0.45567
0.430683
0.406763
0.384556
0.0200343
0.0554112
0.0878762
0.11518
0.134734
0.14305
0.135876
0.111317
0.0847623
0.080312
0.0936539
0.130521
0.177324
0.241862
0.319402
0.400132
0.482612
0.565123
0.645648
0.72188
0.791234
0.850864
0.897785
0.928991
0.941984
0.93529
0.910291
0.871945