/*--------------------------------*- C++ -*----------------------------------*\
| =========                 |                                                 |
| \\      /  F ield         | OpenFOAM: The Open Source CFD Toolbox           |
|  \\    /   O peration     | Version:  2312                                  |
|   \\  /    A nd           | Website:  www.openfoam.com                      |
|    \\/     M anipulation  |                                                 |
\*---------------------------------------------------------------------------*/
FoamFile
{
    version     2.0;
    format      ascii;
    arch        "LSB;label=32;scalar=64";
    class       volScalarField;
    location    "1.5";
    object      pMean;
}
// * * * * * * * * * * * * * * * * * * * * * * * * * * * * * * * * * * * * * //

dimensions      [0 2 -2 0 0 0 0];

internalField   nonuniform List<scalar> 
326144
(
-0.653959
-0.653223
-0.651704
-0.650018
-0.647691
-0.644783
-0.641157
-0.636695
-0.631331
-0.625123
-0.618435
-0.611578
-0.604423
-0.596792
-0.588679
-0.580109
-0.571088
-0.561627
-0.551763
-0.541536
-0.530883
-0.519782
-0.508188
-0.496029
-0.483231
-0.469718
-0.455423
-0.440298
-0.424342
-0.407614
-0.39024
-0.372397
-0.354263
-0.33596
-0.317598
-0.299307
-0.281208
-0.263425
-0.246044
-0.229206
-0.212859
-0.197252
-0.182034
-0.167927
-0.697431
-0.696693
-0.695171
-0.693436
-0.691058
-0.68807
-0.684324
-0.679686
-0.674056
-0.667481
-0.660387
-0.653189
-0.645741
-0.637748
-0.629102
-0.619794
-0.609826
-0.599205
-0.587943
-0.576083
-0.563606
-0.550549
-0.53693
-0.522748
-0.508003
-0.492692
-0.476817
-0.460395
-0.443475
-0.426133
-0.408473
-0.390575
-0.372482
-0.354263
-0.33601
-0.317819
-0.29978
-0.281995
-0.264536
-0.247511
-0.230916
-0.214995
-0.199437
-0.185722
-0.74746
-0.746701
-0.745158
-0.743354
-0.740897
-0.73777
-0.733794
-0.728787
-0.722589
-0.715229
-0.707272
-0.699328
-0.691176
-0.68235
-0.672704
-0.662237
-0.650963
-0.638892
-0.626047
-0.612483
-0.598208
-0.583297
-0.567813
-0.551802
-0.535311
-0.518381
-0.501065
-0.483422
-0.465521
-0.447418
-0.429132
-0.410686
-0.392135
-0.373543
-0.354972
-0.336493
-0.318179
-0.300107
-0.282334
-0.264959
-0.247984
-0.23161
-0.215698
-0.201286
-0.799546
-0.798765
-0.797195
-0.795309
-0.792755
-0.789455
-0.78517
-0.779653
-0.772675
-0.764215
-0.754984
-0.745931
-0.736816
-0.72693
-0.71607
-0.704265
-0.691548
-0.677944
-0.663497
-0.648288
-0.632361
-0.615813
-0.598725
-0.581163
-0.563199
-0.544914
-0.526385
-0.507678
-0.488812
-0.469793
-0.450655
-0.431448
-0.412216
-0.393005
-0.37387
-0.354867
-0.336058
-0.317504
-0.299261
-0.281415
-0.263961
-0.247132
-0.230677
-0.215662
-0.850705
-0.849906
-0.848314
-0.846344
-0.843693
-0.840221
-0.835628
-0.829589
-0.821811
-0.812215
-0.80152
-0.791012
-0.780678
-0.769622
-0.757481
-0.744276
-0.730083
-0.714966
-0.699005
-0.682305
-0.664928
-0.646975
-0.628534
-0.609694
-0.590548
-0.571178
-0.551626
-0.531902
-0.512032
-0.492059
-0.472023
-0.451968
-0.431937
-0.411976
-0.392135
-0.372467
-0.353024
-0.333863
-0.315039
-0.296619
-0.278618
-0.261212
-0.244173
-0.228511
-0.899407
-0.898603
-0.896994
-0.894929
-0.892152
-0.888471
-0.883544
-0.876989
-0.868479
-0.857906
-0.845851
-0.833714
-0.821892
-0.80952
-0.796068
-0.7815
-0.765914
-0.749413
-0.732103
-0.714103
-0.695484
-0.676352
-0.656814
-0.636959
-0.616844
-0.596495
-0.575939
-0.555219
-0.534378
-0.513456
-0.492497
-0.47155
-0.450663
-0.429883
-0.409261
-0.388847
-0.368694
-0.348854
-0.32938
-0.310332
-0.291728
-0.273715
-0.256068
-0.239747
-0.944884
-0.944096
-0.942473
-0.940276
-0.937294
-0.933305
-0.927967
-0.920896
-0.91178
-0.900523
-0.887457
-0.873757
-0.860325
-0.846598
-0.831842
-0.815956
-0.799071
-0.781325
-0.762837
-0.743728
-0.724077
-0.703988
-0.683535
-0.662754
-0.641675
-0.620342
-0.598803
-0.577104
-0.55529
-0.533407
-0.511508
-0.489646
-0.467873
-0.446239
-0.424797
-0.403598
-0.382695
-0.36214
-0.341985
-0.322281
-0.303056
-0.284411
-0.266162
-0.249203
-0.988735
-0.987974
-0.986328
-0.98395
-0.98066
-0.976206
-0.97029
-0.962584
-0.952841
-0.941025
-0.927338
-0.912452
-0.897284
-0.881907
-0.865755
-0.848573
-0.830438
-0.811504
-0.791908
-0.771768
-0.751146
-0.73009
-0.708641
-0.68684
-0.664736
-0.64238
-0.619819
-0.597105
-0.57429
-0.551425
-0.528567
-0.505772
-0.483097
-0.460595
-0.438321
-0.416326
-0.394666
-0.373392
-0.352556
-0.332201
-0.312362
-0.293096
-0.274289
-0.256709
-1.03276
-1.03202
-1.03032
-1.0277
-1.02398
-1.01888
-1.01215
-1.00357
-0.992989
-0.980452
-0.966151
-0.95043
-0.933793
-0.91657
-0.898688
-0.880002
-0.860521
-0.840337
-0.819556
-0.798265
-0.776498
-0.754294
-0.731706
-0.708781
-0.685566
-0.662114
-0.638477
-0.614709
-0.590866
-0.567003
-0.543177
-0.51945
-0.495878
-0.472518
-0.449425
-0.426654
-0.404258
-0.38229
-0.360799
-0.339827
-0.319403
-0.299559
-0.280249
-0.262086
-1.0761
-1.07537
-1.07357
-1.07062
-1.0663
-1.06034
-1.05258
-1.04291
-1.03131
-1.01786
-1.00273
-0.986132
-0.968302
-0.949486
-0.929871
-0.909552
-0.888581
-0.867009
-0.84489
-0.822284
-0.799233
-0.775777
-0.751966
-0.727846
-0.703468
-0.678884
-0.654149
-0.629318
-0.60445
-0.5796
-0.554828
-0.530195
-0.505761
-0.481583
-0.457717
-0.434217
-0.411136
-0.388528
-0.366439
-0.344907
-0.323956
-0.303601
-0.283865
-0.265165
-1.11775
-1.11702
-1.11509
-1.11172
-1.10664
-1.0996
-1.09057
-1.07955
-1.06664
-1.05194
-1.03561
-1.01781
-0.998692
-0.978449
-0.957302
-0.935443
-0.912984
-0.889985
-0.866489
-0.842545
-0.8182
-0.793482
-0.768446
-0.743142
-0.717617
-0.691927
-0.666128
-0.640278
-0.614434
-0.588655
-0.563
-0.537529
-0.512304
-0.487382
-0.46282
-0.438672
-0.41499
-0.391825
-0.369222
-0.347214
-0.325814
-0.305044
-0.284966
-0.265795
-1.15581
-1.15503
-1.15293
-1.14908
-1.14311
-1.13485
-1.12435
-1.11173
-1.09718
-1.08088
-1.06299
-1.04368
-1.02309
-1.00143
-0.978918
-0.955719
-0.931944
-0.907655
-0.882899
-0.857724
-0.832178
-0.8063
-0.780135
-0.753738
-0.727163
-0.700465
-0.673701
-0.646932
-0.620217
-0.593615
-0.567185
-0.540987
-0.515081
-0.489526
-0.46438
-0.439695
-0.415525
-0.391915
-0.368907
-0.346527
-0.324784
-0.303712
-0.283393
-0.263845
-1.18642
-1.18567
-1.18334
-1.17894
-1.17205
-1.16257
-1.15062
-1.13643
-1.12024
-1.10231
-1.08284
-1.06202
-1.04003
-1.01708
-0.993374
-0.969045
-0.944162
-0.918779
-0.892944
-0.86671
-0.840126
-0.813241
-0.786108
-0.758778
-0.73131
-0.70376
-0.676187
-0.648652
-0.621215
-0.593938
-0.566881
-0.540103
-0.513665
-0.487621
-0.462031
-0.436947
-0.412421
-0.388499
-0.365216
-0.342593
-0.320642
-0.299409
-0.278958
-0.259142
-1.20652
-1.20578
-1.20322
-1.19826
-1.19047
-1.17983
-1.16658
-1.15103
-1.13348
-1.11419
-1.09339
-1.07134
-1.04821
-1.02425
-0.999594
-0.974348
-0.948565
-0.9223
-0.895605
-0.86853
-0.841128
-0.813453
-0.78556
-0.757504
-0.729344
-0.701139
-0.672951
-0.644841
-0.616872
-0.589105
-0.561602
-0.534423
-0.507625
-0.481268
-0.455403
-0.43008
-0.405352
-0.381267
-0.357859
-0.335142
-0.31314
-0.291921
-0.271463
-0.251419
-0.65395
-0.653215
-0.651697
-0.650009
-0.647681
-0.644772
-0.641144
-0.63668
-0.631315
-0.625105
-0.618415
-0.611556
-0.6044
-0.596767
-0.588654
-0.580084
-0.571065
-0.561607
-0.551745
-0.54152
-0.53087
-0.519773
-0.508183
-0.496028
-0.483233
-0.469724
-0.455432
-0.44031
-0.424356
-0.407628
-0.390255
-0.372412
-0.354277
-0.335974
-0.317611
-0.29932
-0.28122
-0.263437
-0.246057
-0.229219
-0.212873
-0.197267
-0.182047
-0.167948
-0.697398
-0.696661
-0.695139
-0.693402
-0.691023
-0.688034
-0.684286
-0.679647
-0.674016
-0.667441
-0.660346
-0.653147
-0.6457
-0.637707
-0.629062
-0.619756
-0.609791
-0.599173
-0.587915
-0.57606
-0.563587
-0.550534
-0.536919
-0.522741
-0.508
-0.492692
-0.47682
-0.4604
-0.443482
-0.426141
-0.408481
-0.390584
-0.372492
-0.354273
-0.336021
-0.317829
-0.299791
-0.282005
-0.264547
-0.247522
-0.230927
-0.215005
-0.199448
-0.185738
-0.747413
-0.746655
-0.745112
-0.743306
-0.740849
-0.737721
-0.733743
-0.728735
-0.722539
-0.715179
-0.707224
-0.69928
-0.69113
-0.682306
-0.672662
-0.662199
-0.650929
-0.638862
-0.626021
-0.61246
-0.59819
-0.583283
-0.567802
-0.551796
-0.535307
-0.51838
-0.501066
-0.483425
-0.465525
-0.447423
-0.429138
-0.410693
-0.392143
-0.373551
-0.354981
-0.336503
-0.318189
-0.300116
-0.282344
-0.264969
-0.247995
-0.23162
-0.215709
-0.201302
-0.799502
-0.798721
-0.797151
-0.795263
-0.792709
-0.789407
-0.785122
-0.779604
-0.772626
-0.764169
-0.75494
-0.74589
-0.736777
-0.726893
-0.716036
-0.704234
-0.691521
-0.677921
-0.663478
-0.648273
-0.63235
-0.615804
-0.598719
-0.58116
-0.563199
-0.544915
-0.526387
-0.507681
-0.488817
-0.469798
-0.450661
-0.431455
-0.412223
-0.393014
-0.373879
-0.354877
-0.336068
-0.317514
-0.299271
-0.281425
-0.263972
-0.247142
-0.230689
-0.215679
-0.85067
-0.849872
-0.848279
-0.846307
-0.843656
-0.840182
-0.835588
-0.829549
-0.821772
-0.812178
-0.801486
-0.790982
-0.780651
-0.769597
-0.75746
-0.744258
-0.730068
-0.714955
-0.698996
-0.682299
-0.664925
-0.646973
-0.628534
-0.609695
-0.590551
-0.571182
-0.55163
-0.531907
-0.512038
-0.492065
-0.47203
-0.451976
-0.431945
-0.411985
-0.392145
-0.372477
-0.353035
-0.333874
-0.315051
-0.296631
-0.27863
-0.261225
-0.244187
-0.22853
-0.899383
-0.89858
-0.896971
-0.894904
-0.892125
-0.888443
-0.883516
-0.876961
-0.868451
-0.857879
-0.845827
-0.833694
-0.821876
-0.809507
-0.796058
-0.781493
-0.76591
-0.749411
-0.732103
-0.714105
-0.695486
-0.676356
-0.656818
-0.636964
-0.61685
-0.596501
-0.575946
-0.555227
-0.534386
-0.513464
-0.492505
-0.471559
-0.450673
-0.429894
-0.409272
-0.388859
-0.368706
-0.348867
-0.329394
-0.310346
-0.291743
-0.273731
-0.256085
-0.239768
-0.944866
-0.944078
-0.942455
-0.940256
-0.937274
-0.933283
-0.927945
-0.920874
-0.911758
-0.900502
-0.887439
-0.873744
-0.860316
-0.846592
-0.831839
-0.815955
-0.799073
-0.781329
-0.762842
-0.743733
-0.724084
-0.703995
-0.683543
-0.662762
-0.641683
-0.62035
-0.598812
-0.577114
-0.555299
-0.533417
-0.511519
-0.489658
-0.467885
-0.446252
-0.42481
-0.403612
-0.382709
-0.362155
-0.342001
-0.322298
-0.303075
-0.28443
-0.266183
-0.249228
-0.988717
-0.987957
-0.98631
-0.983931
-0.980639
-0.976185
-0.970269
-0.962563
-0.952821
-0.941006
-0.92732
-0.912439
-0.897276
-0.881903
-0.865755
-0.848576
-0.830442
-0.81151
-0.791915
-0.771776
-0.751154
-0.730099
-0.708651
-0.68685
-0.664746
-0.64239
-0.619831
-0.597117
-0.574302
-0.551438
-0.52858
-0.505786
-0.483111
-0.46061
-0.438336
-0.416343
-0.394684
-0.373411
-0.352576
-0.332223
-0.312385
-0.293121
-0.274316
-0.256741
-1.03274
-1.032
-1.0303
-1.02768
-1.02396
-1.01885
-1.01213
-1.00355
-0.992969
-0.980434
-0.966136
-0.950418
-0.933785
-0.916567
-0.898689
-0.880006
-0.860527
-0.840345
-0.819565
-0.798274
-0.776508
-0.754305
-0.731718
-0.708793
-0.685578
-0.662126
-0.63849
-0.614723
-0.590881
-0.567018
-0.543193
-0.519466
-0.495896
-0.472537
-0.449445
-0.426675
-0.404281
-0.382314
-0.360825
-0.339855
-0.319433
-0.299592
-0.280286
-0.262127
-1.07608
-1.07535
-1.07355
-1.0706
-1.06628
-1.06032
-1.05256
-1.04289
-1.03129
-1.01784
-1.00272
-0.986123
-0.968296
-0.949483
-0.929873
-0.909556
-0.888587
-0.867017
-0.8449
-0.822294
-0.799245
-0.775789
-0.751979
-0.727861
-0.703483
-0.6789
-0.654166
-0.629336
-0.604469
-0.57962
-0.554849
-0.530217
-0.505784
-0.481607
-0.457742
-0.434244
-0.411166
-0.38856
-0.366473
-0.344945
-0.323997
-0.303647
-0.283916
-0.265221
-1.11772
-1.11699
-1.11505
-1.11169
-1.10661
-1.09958
-1.09054
-1.07953
-1.06662
-1.05192
-1.0356
-1.0178
-0.99869
-0.97845
-0.957306
-0.93545
-0.912993
-0.889995
-0.866501
-0.842559
-0.818214
-0.793498
-0.768464
-0.74316
-0.717637
-0.691948
-0.666151
-0.640302
-0.614459
-0.588681
-0.563027
-0.537558
-0.512334
-0.487414
-0.462854
-0.438709
-0.41503
-0.391869
-0.36927
-0.347266
-0.325873
-0.30511
-0.285039
-0.265878
-1.15578
-1.15499
-1.15289
-1.14904
-1.14308
-1.13482
-1.12432
-1.11171
-1.09716
-1.08087
-1.06299
-1.04368
-1.0231
-1.00144
-0.978928
-0.955732
-0.931958
-0.907671
-0.882917
-0.857743
-0.832199
-0.806322
-0.780159
-0.753764
-0.72719
-0.700494
-0.673732
-0.646964
-0.620251
-0.59365
-0.567222
-0.541026
-0.515122
-0.48957
-0.464427
-0.439746
-0.41558
-0.391976
-0.368975
-0.346602
-0.324869
-0.303809
-0.283502
-0.263969
-1.18639
-1.18564
-1.18331
-1.17891
-1.17203
-1.16254
-1.1506
-1.13641
-1.12023
-1.10231
-1.08284
-1.06203
-1.04004
-1.0171
-0.993395
-0.969068
-0.944187
-0.918805
-0.892973
-0.86674
-0.840157
-0.813274
-0.786143
-0.758815
-0.731349
-0.7038
-0.676229
-0.648696
-0.621262
-0.593987
-0.566932
-0.540158
-0.513722
-0.487682
-0.462096
-0.437018
-0.412499
-0.388586
-0.365313
-0.342701
-0.320766
-0.299553
-0.279122
-0.259333
-1.20651
-1.20576
-1.20321
-1.19825
-1.19045
-1.17982
-1.16658
-1.15104
-1.13349
-1.1142
-1.09342
-1.07136
-1.04824
-1.02428
-0.99963
-0.974386
-0.948606
-0.922343
-0.895649
-0.868576
-0.841176
-0.813503
-0.785612
-0.757558
-0.729399
-0.701196
-0.67301
-0.644903
-0.616936
-0.589172
-0.561673
-0.534496
-0.507704
-0.481352
-0.455494
-0.43018
-0.405462
-0.38139
-0.357997
-0.335299
-0.313322
-0.292129
-0.271711
-0.251718
-0.65394
-0.653205
-0.651687
-0.649999
-0.647671
-0.644762
-0.641133
-0.63667
-0.631304
-0.625094
-0.618404
-0.611544
-0.604387
-0.596755
-0.588641
-0.580072
-0.571052
-0.561595
-0.551734
-0.541509
-0.53086
-0.519765
-0.508176
-0.496022
-0.483228
-0.469721
-0.45543
-0.44031
-0.424358
-0.407632
-0.39026
-0.372418
-0.354285
-0.335982
-0.317621
-0.29933
-0.281232
-0.263449
-0.24607
-0.229233
-0.212888
-0.197282
-0.182063
-0.167964
-0.697381
-0.696644
-0.695123
-0.693386
-0.691007
-0.688018
-0.68427
-0.67963
-0.674
-0.667424
-0.660329
-0.653131
-0.645683
-0.63769
-0.629045
-0.61974
-0.609776
-0.599158
-0.587901
-0.576047
-0.563576
-0.550524
-0.536911
-0.522734
-0.507995
-0.492689
-0.476819
-0.460401
-0.443485
-0.426145
-0.408487
-0.390591
-0.3725
-0.354282
-0.336031
-0.31784
-0.299803
-0.282018
-0.264561
-0.247537
-0.230943
-0.215022
-0.199465
-0.185756
-0.747393
-0.746635
-0.745093
-0.743287
-0.740829
-0.737701
-0.733723
-0.728716
-0.722519
-0.71516
-0.707205
-0.699262
-0.691111
-0.682288
-0.672645
-0.662182
-0.650913
-0.638847
-0.626007
-0.612448
-0.598179
-0.583273
-0.567795
-0.55179
-0.535303
-0.518378
-0.501066
-0.483427
-0.465529
-0.447428
-0.429145
-0.410701
-0.392152
-0.373562
-0.354992
-0.336515
-0.318203
-0.300131
-0.28236
-0.264986
-0.248012
-0.231639
-0.215729
-0.201322
-0.799481
-0.7987
-0.79713
-0.795242
-0.792687
-0.789386
-0.785101
-0.779583
-0.772606
-0.764149
-0.754921
-0.745872
-0.736759
-0.726876
-0.71602
-0.704219
-0.691506
-0.677908
-0.663466
-0.648262
-0.632341
-0.615797
-0.598713
-0.581156
-0.563197
-0.544915
-0.52639
-0.507685
-0.488822
-0.469805
-0.450669
-0.431464
-0.412234
-0.393026
-0.373892
-0.354891
-0.336083
-0.31753
-0.299289
-0.281444
-0.263991
-0.247163
-0.230711
-0.215702
-0.850647
-0.849849
-0.848257
-0.846285
-0.843634
-0.84016
-0.835566
-0.829527
-0.821751
-0.812158
-0.801467
-0.790964
-0.780634
-0.769581
-0.757445
-0.744244
-0.730056
-0.714944
-0.698987
-0.682291
-0.664919
-0.646969
-0.628532
-0.609695
-0.590553
-0.571185
-0.551635
-0.531913
-0.512046
-0.492074
-0.472041
-0.451988
-0.431958
-0.411999
-0.39216
-0.372493
-0.353053
-0.333894
-0.315071
-0.296653
-0.278653
-0.261249
-0.244213
-0.228557
-0.89936
-0.898557
-0.896948
-0.89488
-0.892102
-0.88842
-0.883492
-0.876937
-0.868429
-0.857858
-0.845808
-0.833678
-0.82186
-0.809493
-0.796045
-0.781481
-0.7659
-0.749403
-0.732097
-0.714101
-0.695485
-0.676356
-0.656821
-0.636968
-0.616855
-0.596508
-0.575954
-0.555236
-0.534397
-0.513476
-0.492519
-0.471574
-0.450689
-0.429911
-0.409291
-0.388879
-0.368727
-0.348889
-0.329418
-0.310372
-0.29177
-0.27376
-0.256117
-0.239802
-0.944844
-0.944057
-0.942434
-0.940235
-0.937252
-0.933261
-0.927923
-0.920852
-0.911737
-0.900483
-0.887423
-0.87373
-0.860305
-0.846582
-0.831831
-0.815949
-0.799068
-0.781326
-0.762842
-0.743735
-0.724087
-0.704
-0.683549
-0.66277
-0.641692
-0.620361
-0.598824
-0.577127
-0.555314
-0.533433
-0.511536
-0.489676
-0.467904
-0.446273
-0.424832
-0.403636
-0.382735
-0.362182
-0.342031
-0.322329
-0.303109
-0.284466
-0.266222
-0.24927
-0.9887
-0.987939
-0.986293
-0.983913
-0.980622
-0.976167
-0.970251
-0.962545
-0.952804
-0.940991
-0.927308
-0.91243
-0.89727
-0.8819
-0.865753
-0.848575
-0.830444
-0.811514
-0.791921
-0.771784
-0.751163
-0.730109
-0.708662
-0.686862
-0.66476
-0.642405
-0.619847
-0.597134
-0.57432
-0.551458
-0.528601
-0.505808
-0.483135
-0.460636
-0.438364
-0.416372
-0.394715
-0.373445
-0.352612
-0.332262
-0.312427
-0.293167
-0.274366
-0.256794
-1.03273
-1.03199
-1.03029
-1.02766
-1.02394
-1.01884
-1.01211
-1.00353
-0.992959
-0.980425
-0.966129
-0.950414
-0.933784
-0.91657
-0.898694
-0.880013
-0.860536
-0.840355
-0.819577
-0.798287
-0.776522
-0.75432
-0.731734
-0.70881
-0.685597
-0.662146
-0.638511
-0.614746
-0.590905
-0.567043
-0.54322
-0.519495
-0.495926
-0.472569
-0.44948
-0.426712
-0.40432
-0.382357
-0.360871
-0.339905
-0.319488
-0.299651
-0.28035
-0.262197
-1.07607
-1.07534
-1.07354
-1.07059
-1.06627
-1.06031
-1.05255
-1.04289
-1.03129
-1.01784
-1.00272
-0.986124
-0.968299
-0.949489
-0.929882
-0.909568
-0.888601
-0.867031
-0.844916
-0.822312
-0.799264
-0.77581
-0.752001
-0.727884
-0.703508
-0.678926
-0.654193
-0.629365
-0.604499
-0.579652
-0.554883
-0.530253
-0.505823
-0.481649
-0.457786
-0.434291
-0.411217
-0.388615
-0.366533
-0.34501
-0.324068
-0.303725
-0.284002
-0.265317
-1.11771
-1.11699
-1.11505
-1.11168
-1.1066
-1.09957
-1.09054
-1.07953
-1.06662
-1.05193
-1.03561
-1.01781
-0.998698
-0.978461
-0.95732
-0.935466
-0.913011
-0.890015
-0.866523
-0.842583
-0.81824
-0.793525
-0.768493
-0.743191
-0.71767
-0.691983
-0.666188
-0.64034
-0.6145
-0.588724
-0.563072
-0.537606
-0.512385
-0.487469
-0.462912
-0.438771
-0.415097
-0.391942
-0.36935
-0.347354
-0.325969
-0.305216
-0.285158
-0.26601
-1.15577
-1.15498
-1.15288
-1.14903
-1.14307
-1.13482
-1.12432
-1.11171
-1.09717
-1.08087
-1.063
-1.04369
-1.02311
-1.00146
-0.978952
-0.955758
-0.931987
-0.907702
-0.88295
-0.857778
-0.832236
-0.806361
-0.7802
-0.753807
-0.727236
-0.700541
-0.673782
-0.647017
-0.620306
-0.593708
-0.567283
-0.54109
-0.515191
-0.489643
-0.464505
-0.43983
-0.415671
-0.392075
-0.369083
-0.346722
-0.325002
-0.303958
-0.283668
-0.264157
-1.18639
-1.18564
-1.18331
-1.17891
-1.17202
-1.16254
-1.1506
-1.13642
-1.12025
-1.10233
-1.08286
-1.06206
-1.04008
-1.01713
-0.993435
-0.96911
-0.944232
-0.918852
-0.893022
-0.866792
-0.840212
-0.813331
-0.786202
-0.758877
-0.731412
-0.703867
-0.676299
-0.648769
-0.621337
-0.594066
-0.567016
-0.540246
-0.513815
-0.487782
-0.462202
-0.437133
-0.412624
-0.388722
-0.365463
-0.342868
-0.320951
-0.299761
-0.279359
-0.259604
-1.20652
-1.20577
-1.20322
-1.19826
-1.19047
-1.17984
-1.1666
-1.15107
-1.13352
-1.11424
-1.09346
-1.07142
-1.0483
-1.02434
-0.999693
-0.974452
-0.948674
-0.922414
-0.895723
-0.868652
-0.841255
-0.813585
-0.785696
-0.757645
-0.729489
-0.701289
-0.673107
-0.645004
-0.617041
-0.589282
-0.561787
-0.534618
-0.507832
-0.481488
-0.455639
-0.430337
-0.405633
-0.381578
-0.358204
-0.33553
-0.313583
-0.292424
-0.27205
-0.252107
-0.65394
-0.653205
-0.651687
-0.649999
-0.64767
-0.644762
-0.641133
-0.63667
-0.631304
-0.625094
-0.618404
-0.611543
-0.604387
-0.596754
-0.588639
-0.58007
-0.57105
-0.561593
-0.551731
-0.541506
-0.530857
-0.519761
-0.508172
-0.496018
-0.483225
-0.469718
-0.455428
-0.440308
-0.424357
-0.407633
-0.390262
-0.372422
-0.35429
-0.335989
-0.317629
-0.299341
-0.281244
-0.263463
-0.246085
-0.22925
-0.212906
-0.197301
-0.182083
-0.167985
-0.697379
-0.696642
-0.695121
-0.693383
-0.691005
-0.688016
-0.684268
-0.679628
-0.673998
-0.667422
-0.660327
-0.653128
-0.64568
-0.637686
-0.629042
-0.619735
-0.609771
-0.599154
-0.587897
-0.576042
-0.563571
-0.55052
-0.536907
-0.522731
-0.507992
-0.492687
-0.476818
-0.460402
-0.443487
-0.426149
-0.408493
-0.390599
-0.372509
-0.354293
-0.336043
-0.317854
-0.299818
-0.282035
-0.264579
-0.247556
-0.230963
-0.215043
-0.199487
-0.185778
-0.747388
-0.74663
-0.745087
-0.743281
-0.740824
-0.737696
-0.733718
-0.728711
-0.722514
-0.715155
-0.7072
-0.699256
-0.691106
-0.682283
-0.672639
-0.662176
-0.650907
-0.638841
-0.626001
-0.612442
-0.598174
-0.583269
-0.567791
-0.551787
-0.535302
-0.518379
-0.501069
-0.483431
-0.465535
-0.447436
-0.429154
-0.410712
-0.392165
-0.373575
-0.355007
-0.336532
-0.318221
-0.30015
-0.282381
-0.265008
-0.248035
-0.231663
-0.215754
-0.201348
-0.79947
-0.79869
-0.79712
-0.795232
-0.792677
-0.789376
-0.785091
-0.779574
-0.772596
-0.76414
-0.754912
-0.745863
-0.73675
-0.726868
-0.716012
-0.704211
-0.691499
-0.677901
-0.66346
-0.648257
-0.632337
-0.615794
-0.598712
-0.581157
-0.5632
-0.54492
-0.526396
-0.507693
-0.488832
-0.469817
-0.450682
-0.431479
-0.41225
-0.393043
-0.37391
-0.354911
-0.336104
-0.317553
-0.299313
-0.28147
-0.264018
-0.247192
-0.230741
-0.215733
-0.850633
-0.849835
-0.848242
-0.846271
-0.843619
-0.840145
-0.835551
-0.829512
-0.821737
-0.812145
-0.801455
-0.790953
-0.780623
-0.769571
-0.757435
-0.744235
-0.730048
-0.714937
-0.698982
-0.682288
-0.664917
-0.64697
-0.628535
-0.609701
-0.59056
-0.571194
-0.551646
-0.531926
-0.51206
-0.49209
-0.472058
-0.452006
-0.431978
-0.41202
-0.392183
-0.372517
-0.353078
-0.333921
-0.3151
-0.296683
-0.278685
-0.261283
-0.244248
-0.228593
-0.899342
-0.898539
-0.89693
-0.894863
-0.892085
-0.888402
-0.883474
-0.87692
-0.868412
-0.857843
-0.845795
-0.833667
-0.82185
-0.809483
-0.796036
-0.781474
-0.765895
-0.7494
-0.732096
-0.714102
-0.695488
-0.676362
-0.656829
-0.636978
-0.616868
-0.596522
-0.57597
-0.555253
-0.534416
-0.513496
-0.49254
-0.471597
-0.450713
-0.429937
-0.409318
-0.388907
-0.368757
-0.348922
-0.329452
-0.310408
-0.291808
-0.273801
-0.256159
-0.239846
-0.94483
-0.944043
-0.942419
-0.94022
-0.937237
-0.933246
-0.927907
-0.920836
-0.911723
-0.90047
-0.887413
-0.873724
-0.860301
-0.846579
-0.831828
-0.815948
-0.79907
-0.78133
-0.762848
-0.743744
-0.724099
-0.704013
-0.683564
-0.662787
-0.641711
-0.620381
-0.598846
-0.57715
-0.555338
-0.533458
-0.511563
-0.489704
-0.467934
-0.446304
-0.424865
-0.40367
-0.382771
-0.362221
-0.342072
-0.322373
-0.303155
-0.284515
-0.266275
-0.249325
-0.988693
-0.987933
-0.986287
-0.983907
-0.980615
-0.97616
-0.970243
-0.962537
-0.952797
-0.940986
-0.927306
-0.912432
-0.897276
-0.881907
-0.865761
-0.848585
-0.830456
-0.811528
-0.791938
-0.771802
-0.751183
-0.730131
-0.708685
-0.686886
-0.664786
-0.642432
-0.619875
-0.597164
-0.574351
-0.55149
-0.528635
-0.505844
-0.483172
-0.460675
-0.438404
-0.416415
-0.39476
-0.373493
-0.352663
-0.332316
-0.312485
-0.293228
-0.274432
-0.256865
-1.03273
-1.03199
-1.03029
-1.02767
-1.02395
-1.01885
-1.01212
-1.00354
-0.992964
-0.980431
-0.966137
-0.950425
-0.933799
-0.916587
-0.898713
-0.880034
-0.860559
-0.84038
-0.819603
-0.798315
-0.776551
-0.75435
-0.731765
-0.708842
-0.685631
-0.662181
-0.638547
-0.614783
-0.590944
-0.567084
-0.543262
-0.519539
-0.495972
-0.472617
-0.44953
-0.426765
-0.404376
-0.382416
-0.360934
-0.339973
-0.319561
-0.299729
-0.280435
-0.262289
-1.07609
-1.07535
-1.07356
-1.07061
-1.06629
-1.06033
-1.05257
-1.0429
-1.03131
-1.01786
-1.00273
-0.986144
-0.96832
-0.949514
-0.929909
-0.909598
-0.888633
-0.867065
-0.844951
-0.822348
-0.799301
-0.775849
-0.752042
-0.727926
-0.703551
-0.678971
-0.65424
-0.629413
-0.604549
-0.579704
-0.554937
-0.530309
-0.505881
-0.481709
-0.45785
-0.434359
-0.411288
-0.388691
-0.366615
-0.345098
-0.324163
-0.303828
-0.284114
-0.265439
-1.11773
-1.117
-1.11507
-1.1117
-1.10662
-1.09959
-1.09056
-1.07955
-1.06664
-1.05195
-1.03563
-1.01784
-0.99873
-0.978495
-0.957357
-0.935505
-0.913053
-0.890059
-0.866569
-0.84263
-0.818289
-0.793577
-0.768546
-0.743246
-0.717727
-0.692042
-0.666248
-0.640403
-0.614564
-0.588791
-0.563141
-0.537677
-0.51246
-0.487547
-0.462995
-0.438858
-0.41519
-0.392041
-0.369456
-0.347469
-0.326094
-0.305353
-0.285308
-0.266175
-1.15579
-1.155
-1.1529
-1.14905
-1.14309
-1.13484
-1.12434
-1.11174
-1.0972
-1.08091
-1.06304
-1.04373
-1.02316
-1.00151
-0.979004
-0.955813
-0.932044
-0.907761
-0.883012
-0.857842
-0.832303
-0.806429
-0.78027
-0.75388
-0.727311
-0.700618
-0.673861
-0.647099
-0.62039
-0.593795
-0.567373
-0.541184
-0.515289
-0.489746
-0.464613
-0.439945
-0.415793
-0.392206
-0.369225
-0.346875
-0.32517
-0.304143
-0.283873
-0.264384
-1.18641
-1.18566
-1.18333
-1.17893
-1.17205
-1.16258
-1.15064
-1.13646
-1.12029
-1.10238
-1.08292
-1.06212
-1.04014
-1.0172
-0.993508
-0.969186
-0.944311
-0.918934
-0.893107
-0.866879
-0.840301
-0.813423
-0.786297
-0.758974
-0.731513
-0.70397
-0.676404
-0.648877
-0.621449
-0.594182
-0.567135
-0.54037
-0.513945
-0.487917
-0.462346
-0.437285
-0.412786
-0.388897
-0.365653
-0.343075
-0.321179
-0.300012
-0.279639
-0.259918
-1.20656
-1.20582
-1.20326
-1.19831
-1.19052
-1.17989
-1.16666
-1.15113
-1.1336
-1.11432
-1.09355
-1.07151
-1.0484
-1.02444
-0.999797
-0.974559
-0.948785
-0.922527
-0.895839
-0.868772
-0.841378
-0.81371
-0.785825
-0.757776
-0.729624
-0.701427
-0.673248
-0.645149
-0.617191
-0.589436
-0.561947
-0.534783
-0.508005
-0.481669
-0.45583
-0.43054
-0.40585
-0.381812
-0.35846
-0.33581
-0.313892
-0.292766
-0.272428
-0.252537
-0.653939
-0.653204
-0.651686
-0.649998
-0.64767
-0.644761
-0.641132
-0.636669
-0.631303
-0.625093
-0.618403
-0.611542
-0.604385
-0.596752
-0.588638
-0.580068
-0.571049
-0.561591
-0.55173
-0.541504
-0.530855
-0.519759
-0.50817
-0.496016
-0.483223
-0.469715
-0.455426
-0.440307
-0.424356
-0.407633
-0.390264
-0.372426
-0.354296
-0.335997
-0.317639
-0.299352
-0.281258
-0.263479
-0.246102
-0.229269
-0.212927
-0.197323
-0.182107
-0.16801
-0.697377
-0.69664
-0.695119
-0.693382
-0.691003
-0.688014
-0.684266
-0.679627
-0.673996
-0.66742
-0.660325
-0.653126
-0.645678
-0.637685
-0.62904
-0.619734
-0.609769
-0.599152
-0.587895
-0.57604
-0.563569
-0.550518
-0.536905
-0.52273
-0.507991
-0.492688
-0.476819
-0.460404
-0.443491
-0.426155
-0.4085
-0.390608
-0.37252
-0.354305
-0.336057
-0.317869
-0.299836
-0.282054
-0.2646
-0.247578
-0.230987
-0.215069
-0.199514
-0.185806
-0.747385
-0.746627
-0.745084
-0.743278
-0.74082
-0.737693
-0.733715
-0.728708
-0.722511
-0.715152
-0.707197
-0.699254
-0.691103
-0.68228
-0.672637
-0.662174
-0.650905
-0.638839
-0.626
-0.612441
-0.598173
-0.583269
-0.567792
-0.551789
-0.535305
-0.518383
-0.501074
-0.483439
-0.465544
-0.447447
-0.429166
-0.410725
-0.39218
-0.373592
-0.355026
-0.336551
-0.318242
-0.300173
-0.282405
-0.265034
-0.248063
-0.231692
-0.215785
-0.201379
-0.799465
-0.798684
-0.797114
-0.795226
-0.792672
-0.78937
-0.785085
-0.779568
-0.772591
-0.764136
-0.754908
-0.745859
-0.736747
-0.726865
-0.716009
-0.704209
-0.691497
-0.677899
-0.663459
-0.648257
-0.632338
-0.615796
-0.598716
-0.581162
-0.563206
-0.544929
-0.526407
-0.507705
-0.488846
-0.469832
-0.450699
-0.431497
-0.41227
-0.393064
-0.373933
-0.354935
-0.33613
-0.31758
-0.299342
-0.2815
-0.264051
-0.247226
-0.230777
-0.215769
-0.850622
-0.849824
-0.848232
-0.84626
-0.843608
-0.840134
-0.835541
-0.829502
-0.821727
-0.812137
-0.801448
-0.790947
-0.780618
-0.769566
-0.757431
-0.744232
-0.730046
-0.714937
-0.698983
-0.68229
-0.664921
-0.646976
-0.628543
-0.609711
-0.590572
-0.571208
-0.551661
-0.531943
-0.512078
-0.49211
-0.472079
-0.452029
-0.432002
-0.412046
-0.39221
-0.372546
-0.353109
-0.333953
-0.315134
-0.296719
-0.278723
-0.261323
-0.24429
-0.228637
-0.899328
-0.898525
-0.896916
-0.894848
-0.89207
-0.888387
-0.883459
-0.876905
-0.868398
-0.857832
-0.845787
-0.83366
-0.821844
-0.809479
-0.796033
-0.781473
-0.765895
-0.749402
-0.7321
-0.714109
-0.695498
-0.676374
-0.656843
-0.636994
-0.616885
-0.596541
-0.575991
-0.555276
-0.534439
-0.513521
-0.492567
-0.471625
-0.450742
-0.429968
-0.409351
-0.388942
-0.368794
-0.34896
-0.329493
-0.310451
-0.291854
-0.273849
-0.25621
-0.239899
-0.944818
-0.944031
-0.942407
-0.940208
-0.937224
-0.933233
-0.927894
-0.920823
-0.911711
-0.900461
-0.887408
-0.873723
-0.860302
-0.846581
-0.831832
-0.815953
-0.799077
-0.78134
-0.76286
-0.743759
-0.724116
-0.704033
-0.683586
-0.662809
-0.641735
-0.620407
-0.598873
-0.577178
-0.555368
-0.53349
-0.511596
-0.489739
-0.46797
-0.446342
-0.424905
-0.403712
-0.382815
-0.362268
-0.342121
-0.322425
-0.30321
-0.284574
-0.266336
-0.24939
-0.988691
-0.98793
-0.986284
-0.983904
-0.980612
-0.976157
-0.970239
-0.962533
-0.952794
-0.940985
-0.92731
-0.912441
-0.897289
-0.881922
-0.865777
-0.848603
-0.830476
-0.81155
-0.791962
-0.771829
-0.751211
-0.73016
-0.708715
-0.686918
-0.664818
-0.642466
-0.61991
-0.5972
-0.574389
-0.551529
-0.528676
-0.505886
-0.483217
-0.460721
-0.438453
-0.416466
-0.394814
-0.373549
-0.352722
-0.33238
-0.312552
-0.2933
-0.274508
-0.256946
-1.03274
-1.032
-1.0303
-1.02768
-1.02396
-1.01886
-1.01213
-1.00355
-0.992975
-0.980445
-0.966153
-0.950444
-0.933823
-0.916615
-0.898743
-0.880066
-0.860592
-0.840415
-0.81964
-0.798352
-0.776589
-0.754389
-0.731805
-0.708884
-0.685673
-0.662225
-0.638592
-0.614829
-0.590991
-0.567133
-0.543313
-0.519592
-0.496027
-0.472674
-0.44959
-0.426828
-0.404442
-0.382486
-0.361008
-0.340052
-0.319645
-0.299819
-0.280531
-0.262392
-1.07611
-1.07538
-1.07358
-1.07063
-1.06631
-1.06035
-1.05259
-1.04293
-1.03133
-1.01789
-1.00276
-0.986175
-0.968353
-0.94955
-0.929948
-0.90964
-0.888677
-0.867111
-0.844997
-0.822396
-0.799351
-0.775899
-0.752093
-0.727979
-0.703605
-0.679026
-0.654297
-0.629472
-0.604609
-0.579766
-0.555001
-0.530376
-0.50595
-0.481781
-0.457925
-0.434437
-0.411371
-0.388779
-0.366708
-0.345197
-0.324269
-0.303943
-0.284237
-0.265572
-1.11776
-1.11703
-1.1151
-1.11173
-1.10665
-1.09962
-1.09059
-1.07958
-1.06668
-1.05199
-1.03567
-1.01788
-0.998775
-0.978543
-0.957408
-0.935559
-0.913109
-0.890117
-0.866629
-0.842692
-0.818353
-0.793642
-0.768613
-0.743315
-0.717797
-0.692113
-0.666321
-0.640478
-0.614642
-0.58887
-0.563223
-0.537762
-0.512547
-0.487638
-0.46309
-0.438958
-0.415296
-0.392153
-0.369576
-0.347597
-0.326232
-0.305501
-0.285468
-0.26635
-1.15582
-1.15503
-1.15293
-1.14908
-1.14312
-1.13488
-1.12438
-1.11178
-1.09725
-1.08096
-1.06309
-1.04379
-1.02322
-1.00158
-0.979074
-0.955886
-0.93212
-0.907839
-0.883092
-0.857924
-0.832386
-0.806515
-0.780358
-0.753969
-0.727402
-0.700712
-0.673957
-0.647196
-0.62049
-0.593898
-0.567479
-0.541294