/*--------------------------------*- C++ -*----------------------------------*\
| =========                 |                                                 |
| \\      /  F ield         | OpenFOAM: The Open Source CFD Toolbox           |
|  \\    /   O peration     | Version:  2312                                  |
|   \\  /    A nd           | Website:  www.openfoam.com                      |
|    \\/     M anipulation  |                                                 |
\*---------------------------------------------------------------------------*/
FoamFile
{
    version     2.0;
    format      ascii;
    arch        "LSB;label=32;scalar=64";
    class       volScalarField;
    location    "0.5";
    object      p;
}
// * * * * * * * * * * * * * * * * * * * * * * * * * * * * * * * * * * * * * //

dimensions      [0 2 -2 0 0 0 0];

internalField   nonuniform List<scalar> 
1600
(
-4.24554e-06
-0.00057733
-0.00473299
-0.00583304
-0.0111294
-0.0121977
-0.0162449
-0.0168787
-0.0183132
-0.0182982
-0.0164724
-0.0157378
-0.0105708
-0.00914915
-0.000971144
0.00103227
0.0116033
0.0140328
0.0261766
0.0288415
0.0416017
0.0442892
0.0566355
0.0591245
0.0700251
0.0721027
0.0806147
0.0820974
0.0874785
0.0882386
0.0900848
0.0900826
0.0884874
0.0878066
0.0835212
0.0824058
0.0769452
0.0758272
0.071652
0.0710805
0.000565805
-7.00802e-06
-0.00437968
-0.00539369
-0.0107127
-0.0116974
-0.0157205
-0.0163048
-0.0177097
-0.0176959
-0.0158434
-0.0151663
-0.00997615
-0.0086657
-0.000466893
0.00137983
0.011971
0.0142105
0.026375
0.0288315
0.0416134
0.0440907
0.0564597
0.058754
0.0696781
0.0715932
0.0801295
0.0814962
0.0869031
0.0876038
0.0894773
0.0894752
0.0879079
0.0872804
0.0830156
0.0819874
0.0765018
0.0754712
0.0710842
0.0705131
0.00470775
0.00432266
-0.000181996
-0.000985489
-0.0059677
-0.00661442
-0.0100177
-0.0103503
-0.0113511
-0.0112741
-0.0094129
-0.00888379
-0.00409917
-0.00313464
0.00429222
0.00562891
0.0151661
0.0167778
0.0277109
0.0294758
0.0409631
0.0427438
0.0538739
0.0555271
0.0653865
0.0667753
0.0745314
0.0755394
0.0805399
0.0810882
0.0829777
0.0830441
0.0818908
0.0815259
0.0778866
0.0772067
0.0720615
0.0712475
0.0667363
0.0663511
0.00583908
0.0053655
0.000571115
-0.000232378
-0.0051377
-0.00578442
-0.00904726
-0.00937985
-0.0102997
-0.0102228
-0.00837432
-0.00784521
-0.00317144
-0.00220692
0.00502124
0.00635793
0.0156284
0.01724
0.0278635
0.0296284
0.0407911
0.0425718
0.0533916
0.0550448
0.0646368
0.0660256
0.0735831
0.0745912
0.0794825
0.0800308
0.0819104
0.0819768
0.0809071
0.0805422
0.0770433
0.0763634
0.0712934
0.0704794
0.065678
0.065203
0.0114425
0.0109414
0.00532481
0.00433088
-0.000906918
-0.00156282
-0.00462745
-0.00492415
-0.00568518
-0.0056048
-0.00386553
-0.0033887
0.000849346
0.00170183
0.00818323
0.00935533
0.017632
0.0190414
0.0285178
0.0300619
0.0400321
0.0415941
0.0512865
0.0527432
0.0613769
0.0626091
0.0694638
0.0703681
0.0748651
0.0753674
0.0771648
0.0772365
0.0763284
0.075996
0.0726719
0.0719758
0.0665403
0.0655312
0.0598937
0.0593919
0.0126608
0.0120644
0.00594305
0.00494912
-0.000419366
-0.00107527
-0.0041507
-0.0044474
-0.00520823
-0.00512785
-0.00341143
-0.0029346
0.00124475
0.00209724
0.00848218
0.00965428
0.0178038
0.0192133
0.0285444
0.0300885
0.0399102
0.0414721
0.0510276
0.0524843
0.0610056
0.0622378
0.0690134
0.0699177
0.0743715
0.0748737
0.0766575
0.0767292
0.0758213
0.0754889
0.0721449
0.0714488
0.0658696
0.0648604
0.0587036
0.0581009
0.0176406
0.0169412
0.00939501
0.00808322
0.00167339
0.000885178
-0.00254436
-0.00288755
-0.0037819
-0.00372759
-0.0021315
-0.00168393
0.00230634
0.00311572
0.00921458
0.0103277
0.0181073
0.0194466
0.0283639
0.029835
0.0392498
0.040745
0.0499494
0.0513532
0.0596151
0.0608124
0.0674332
0.0683189
0.0727023
0.0731937
0.0749313
0.0749842
0.0739526
0.073568
0.069817
0.0689734
0.0622687
0.0609264
0.0532925
0.0525872
0.0185881
0.0178146
0.00972371
0.00841192
0.00178332
0.000995107
-0.00251411
-0.0028573
-0.00378393
-0.00372962
-0.00214838
-0.00170081
0.00227668
0.00308606
0.00916651
0.0102796
0.0180352
0.0193745
0.0282668
0.0297379
0.0391332
0.0406285
0.0498245
0.0512284
0.0594958
0.0606931
0.0673312
0.0682169
0.0726204
0.0731118
0.0748564
0.0749093
0.0738505
0.0734659
0.0696231
0.0687795
0.0618331
0.0604908
0.0522759
0.0514843
0.0215826
0.0206591
0.010931
0.00927255
0.00136926
0.00041491
-0.00363156
-0.00404022
-0.00515829
-0.00512504
-0.00357221
-0.003123
0.000903401
0.0017247
0.007885
0.00901462
0.0168687
0.0182291
0.027249
0.0287487
0.0383188
0.0398531
0.0492836
0.0507376
0.0592943
0.0605493
0.0674999
0.0684416
0.073115
0.0736444
0.075517
0.0755685
0.0743733
0.0739219
0.0694885
0.068459
0.0601072
0.0583905
0.0484336
0.0474922
0.0220101
0.0210532
0.0108238
0.00916532
0.00102054
6.61901e-05
-0.00407465
-0.00448331
-0.00562921
-0.00559596
-0.00403097
-0.00358176
0.000481162
0.00130246
0.00751359
0.00864322
0.0165589
0.0179193
0.0270121
0.0285118
0.0381678
0.039702
0.0492315
0.0506855
0.0593508
0.0606059
0.0676654
0.0686071
0.0733738
0.0739032
0.0758302
0.0758817
0.0746766
0.0742252
0.069688
0.0686585
0.0600335
0.0583167
0.0477912
0.0467954
0.0219655
0.0208068
0.00884331
0.00683336
-0.00262746
-0.00375155
-0.00842751
-0.0088929
-0.0101431
-0.0101044
-0.0083808
-0.00788454
-0.0034865
-0.00258977
0.00407748
0.00530301
0.0137695
0.0152433
0.0249747
0.0266046
0.0369852
0.0386653
0.0489946
0.0506061
0.0601141
0.061529
0.0694106
0.0704985
0.0759649
0.0766039
0.0789741
0.0790715
0.0779051
0.0774069
0.0723096
0.071089
0.0609732
0.0588618
0.0464283
0.0452309
0.0216762
0.0205402
0.00814728
0.00613733
-0.00356546
-0.00468954
-0.0094486
-0.00991399
-0.0111645
-0.0111259
-0.00934529
-0.00884904
-0.00435296
-0.00345624
0.00333855
0.00456409
0.0131819
0.0146557
0.0245604
0.0261904
0.036765
0.0384451
0.0489859
0.0505974
0.0603266
0.0617415
0.0698392
0.0709272
0.0765818
0.0772209
0.0797212
0.0798186
0.0786924
0.0781942
0.0730141
0.0717935
0.061396
0.0592845
0.0463137
0.0451065
0.0176707
0.0162682
0.00204529
-0.000314771
-0.0112968
-0.0125762
-0.0177549
-0.018247
-0.0194028
-0.019313
-0.0170939
-0.0164897
-0.0113036
-0.0102567
-0.00258309
-0.00117455
0.00847653
0.0101616
0.0212388
0.0231058
0.0349806
0.0369204
0.0488658
0.0507525
0.0619412
0.0636335
0.073157
0.0745032
0.0814151
0.0822629
0.0856782
0.0859
0.0851585
0.0846645
0.0791101
0.0777161
0.0658295
0.0633066
0.0482456
0.0467712
0.0164798
0.0151705
0.000604879
-0.00175519
-0.0129664
-0.0142458
-0.0194747
-0.0199668
-0.0210737
-0.0209839
-0.0186446
-0.0180404
-0.0126807
-0.0116338
-0.0037465
-0.00233796
0.00756046
0.00924553
0.0206011
0.0224681
0.0346504
0.0365902
0.0488679
0.0507546
0.0622904
0.0639828
0.0738496
0.0751958
0.0824184
0.0832662
0.0869206
0.0871424
0.086527
0.086033
0.0804489
0.0790548
0.0668946
0.0643718
0.0488109
0.0473844
0.00756689
0.00591008
-0.0106087
-0.0133149
-0.0257094
-0.0271129
-0.0325364
-0.0330031
-0.0336992
-0.0334913
-0.0303316
-0.0295416
-0.023059
-0.0217751
-0.0125329
-0.0108463
0.000602308
0.00260179
0.0156892
0.017905
0.0319922
0.0343122
0.0486453
0.0509362
0.0646232
0.0667286
0.0787384
0.0804805
0.0896726
0.0908614
0.0960905
0.0965531
0.0968695
0.0964677
0.0908696
0.0893455
0.0757815
0.0728325
0.0549585
0.0531817
0.00527079
0.00379357
-0.0129671
-0.0156733
-0.0282711
-0.0296746
-0.0350915
-0.0355581
-0.0361308
-0.035923
-0.032558
-0.031768
-0.0250201
-0.0237361
-0.0141831
-0.0124965
-0.00069793
0.00130155
0.014777
0.0169928
0.0315061
0.0338261
0.048621
0.0509119
0.0650869
0.0671923
0.0796962
0.0814382
0.0910962
0.092285
0.0979029
0.0983655
0.0989385
0.0985366
0.0930019
0.0914779
0.0776689
0.0747199
0.0563929
0.0547379
-0.00965029
-0.0115755
-0.0304466
-0.0334915
-0.0471047
-0.0485807
-0.0538322
-0.0541942
-0.0538943
-0.0534758
-0.0487818
-0.047707
-0.0393071
-0.0376841
-0.0262359
-0.0241666
-0.0102615
-0.00783843
0.00795443
0.0106356
0.0276864
0.0305141
0.0480615
0.050898
0.0679976
0.0706721
0.0861669
0.088473
0.100998
0.102701
0.110788
0.111655
0.113965
0.113791
0.108834
0.107258
0.0922543
0.0888711
0.0679732
0.0658636
-0.0132988
-0.0149386
-0.0339323
-0.0369773
-0.0507488
-0.0522248
-0.05738
-0.057742
-0.0572107
-0.0567922
-0.0517795
-0.0507047
-0.0419266
-0.0403036
-0.0284339
-0.0263646
-0.0119993
-0.00957623
0.00671847
0.00939966
0.0269993
0.029827
0.0479733
0.0508097
0.0685533
0.0712278
0.0873933
0.0896994
0.102885
0.104587
0.113263
0.114131
0.116886
0.116712
0.111967
0.110392
0.0952051
0.0918218
0.07054
0.0686481
-0.035607
-0.0378179
-0.0591057
-0.0624736
-0.076971
-0.0784366
-0.0828639
-0.0830028
-0.0809294
-0.0801714
-0.0731467
-0.0716597
-0.0605738
-0.0584902
-0.044105
-0.0415368
-0.0244666
-0.0215051
-0.00228793
0.000978564
0.0217639
0.0252316
0.0468613
0.050395
0.0719115
0.0753315
0.0954733
0.0985459
0.115712
0.11815
0.130482
0.13198
0.137624
0.13788
0.134642
0.133147
0.117188
0.113381
0.0892678
0.0867922
-0.0409272
-0.0427219
-0.063984
-0.067352
-0.0819282
-0.0833938
-0.087583
-0.087722
-0.085259
-0.084501
-0.0770037
-0.0755167
-0.0639115
-0.0618279
-0.046894
-0.0443257
-0.0266776
-0.0237161
-0.00388162
-0.000615125
0.0208418
0.0243095
0.0466782
0.0502119
0.0725397
0.0759598
0.0969742
0.100047
0.11811
0.120548
0.133734
0.135232
0.141589
0.141845
0.139052
0.137557
0.121535
0.117729
0.0933474
0.091218
-0.0724495
-0.0749642
-0.0986985
-0.102352
-0.117133
-0.118449
-0.121012
-0.120747
-0.115752
-0.114471
-0.104026
-0.10196
-0.0872181
-0.0845269
-0.066359
-0.063163
-0.0421725
-0.0385542
-0.0151919
-0.0112218
0.0140549
0.0182932
0.0448753
0.0492621
0.0762558
0.0806142
0.106715
0.110791
0.134183
0.137636
0.156028
0.158463
0.169333
0.170318
0.170468
0.169274
0.153284
0.149108
0.121707
0.118837
-0.0798777
-0.0818115
-0.105321
-0.108974
-0.123687
-0.125003
-0.127098
-0.126833
-0.121212
-0.119932
-0.108802
-0.106735
-0.0912947
-0.0886036
-0.0697395
-0.0665434
-0.0448515
-0.0412331
-0.0171416
-0.0131714
0.0128916
0.0171299
0.0445849
0.0489717
0.0769466
0.081305
0.1085
0.112575
0.137147
0.140601
0.160187
0.162621
0.174582
0.175566
0.17652
0.175326
0.159499
0.155323
0.127862
0.125515
-0.123192
-0.12602
-0.152076
-0.155926
-0.169861
-0.170791
-0.169785
-0.16883
-0.159185
-0.157116
-0.141735
-0.138864
-0.119227
-0.115749
-0.0928173
-0.0888514
-0.0631547
-0.0587623
-0.0305736
-0.0257914
0.0046591
0.00978603
0.0421219
0.0475096
0.0810259
0.0865211
0.119991
0.125338
0.15682
0.161632
0.188406
0.192188
0.210932
0.213082
0.219198
0.21867
0.204363
0.199962
0.169538
0.16627
-0.133371
-0.135403
-0.160929
-0.164779
-0.178364
-0.179293
-0.177439
-0.176484
-0.165855
-0.163787
-0.147424
-0.144553
-0.123989
-0.12051
-0.0967134
-0.0927475
-0.0662244
-0.0618321
-0.0328149
-0.0280327
0.00329835
0.00842527
0.0417464
0.0471341
0.081788
0.0872831
0.122075
0.127421
0.160405
0.165217
0.193615
0.197397
0.217753
0.219903
0.227374
0.226846
0.213117
0.208717
0.178627
0.17613
-0.192412
-0.195527
-0.223283
-0.227119
-0.238018
-0.238137
-0.23072
-0.228622
-0.211699
-0.208453
-0.186018
-0.182042
-0.15593
-0.151446
-0.122633
-0.117745
-0.0865671
-0.0812939
-0.0477078
-0.0420286
-0.00588932
0.000214841
0.0389267
0.0454362
0.0863889
0.093206
0.135453
0.142353
0.18402
0.190599
0.228661
0.234331
0.264611
0.268563
0.284624
0.285364
0.275899
0.271607
0.239275
0.235671
-0.206376
-0.208399
-0.23507
-0.238906
-0.248901
-0.24902
-0.240119
-0.238022
-0.219575
-0.216329
-0.192503
-0.188528
-0.161202
-0.156717
-0.126853
-0.121965
-0.089845
-0.0845719
-0.0500865
-0.0444073
-0.00733267
-0.00122851
0.0385376
0.0450472
0.0872559
0.0940729
0.137851
0.144751
0.188267
0.194846
0.235056
0.240726
0.273331
0.277283
0.295548
0.296287
0.288166
0.283873
0.252665
0.250198
-0.287703
-0.290956
-0.31835
-0.321669
-0.325167
-0.323708
-0.305113
-0.301151
-0.272995
-0.268013
-0.235628
-0.230153
-0.195622
-0.189877
-0.153987
-0.148028
-0.110703
-0.10447
-0.065147
-0.0585302
-0.0164927
-0.00937609
0.0359983
0.0436963
0.092693
0.100975
0.153228
0.161954
0.216007
0.224816
0.277676
0.285931
0.33274
0.339419
0.371579
0.374597
0.37585
0.3724
0.341361
0.337666
-0.307277
-0.308999
-0.334124
-0.337443
-0.338928
-0.33747
-0.316338
-0.312376
-0.281903
-0.276921
-0.242604
-0.237129
-0.201048
-0.195303
-0.158178
-0.152219
-0.113873
-0.10764
-0.0674019
-0.0607851
-0.0178243
-0.0107077
0.0357165
0.0434145
0.0937134
0.101996
0.155933
0.16466
0.2209
0.229709
0.285325
0.29358
0.343667
0.350345
0.386007
0.389026
0.393046
0.389596
0.361354
0.359355
-0.422547
-0.425451
-0.446585
-0.448183
-0.435495
-0.431064
-0.393377
-0.386426
-0.341281
-0.333787
-0.287711
-0.280254
-0.235121
-0.227851
-0.183808
-0.176664
-0.132846
-0.125637
-0.0806696
-0.0731517
-0.0255092
-0.0174319
0.0343455
0.043207
0.100308
0.110112
0.173148
0.183919
0.252405
0.263928
0.335601
0.347305
0.417293
0.428025
0.485769
0.492779
0.515756
0.514763
0.49316
0.490061
-0.451104
-0.451774
-0.467908
-0.469506
-0.452615
-0.448185
-0.406271
-0.39932
-0.35075
-0.343256
-0.294592
-0.287135
-0.240115
-0.232846
-0.18744
-0.180296
-0.135461
-0.128251
-0.0824477
-0.0749298
-0.0264793
-0.018402
0.0343098
0.0431714
0.101505
0.111309
0.176074
0.186846
0.257788
0.26931
0.344391
0.356095
0.430584
0.441316
0.50451
0.511519
0.539882
0.53889
0.523707
0.5232
-0.62152
-0.62271
-0.62225
-0.619347
-0.573282
-0.563395
-0.494004
-0.482391
-0.412357
-0.401361
-0.337209
-0.327259
-0.269504
-0.26051
-0.207766
-0.199427
-0.149436
-0.14135
-0.0915449
-0.0832838
-0.0310722
-0.0222132
0.0349242
0.044789
0.109228
0.120472
0.194261
0.207173
0.291585
0.306257
0.400969
0.417133
0.518791
0.535419
0.632966
0.64682
0.711715
0.716613
0.723636
0.72286
-0.665354
-0.663116
-0.651299
-0.648396
-0.594046
-0.584159
-0.508025
-0.496412
-0.42153
-0.410535
-0.343099
-0.333149
-0.273267
-0.264273
-0.210182
-0.201842
-0.150986
-0.142899
-0.0924797
-0.0842186
-0.0314538
-0.0225948
0.035217
0.0450818
0.110525
0.12177
0.197166
0.210078
0.297068
0.311741
0.410484
0.426648
0.534284
0.550913
0.656662
0.670515
0.745394
0.750292
0.771512
0.774798
-0.932392
-0.928178
-0.866515
-0.853047
-0.740896
-0.721437
-0.601845
-0.583302
-0.478757
-0.463132
-0.376672
-0.363805
-0.292396
-0.281653
-0.220863
-0.211506
-0.156805
-0.148115
-0.0953116
-0.0866257
-0.0318572
-0.0225523
0.0378945
0.0484354
0.118325
0.130742
0.214015
0.228973
0.329643
0.347776
0.469287
0.491001
0.634216
0.659128
0.816536
0.841732
0.985182
1.00295
1.08412
1.08997
-1.00501
-0.99512
-0.906041
-0.892573
-0.764604
-0.745145
-0.615521
-0.596979
-0.486114
-0.470488
-0.380271
-0.367403
-0.293942
-0.283199
-0.221373
-0.212016
-0.156846
-0.148156
-0.0951613
-0.0864753
-0.0315902
-0.0222854
0.0383876
0.0489285
0.119375
0.131791
0.216276
0.231234
0.334299
0.352432
0.478349
0.500062
0.650741
0.675653
0.844802
0.869997
1.03169
1.04945
1.16294
1.17547
-1.4656
-1.44534
-1.21158
-1.17302
-0.928193
-0.892457
-0.698661
-0.670696
-0.524117
-0.503044
-0.393462
-0.377702
-0.294927
-0.282845
-0.217396
-0.207552
-0.151708
-0.142961
-0.0906554
-0.0820866
-0.0282344
-0.0190327
0.0411379
0.0517852
0.123354
0.136366
0.225365
0.241883
0.355979
0.377452
0.526061
0.554094
0.746625
0.782457
1.02595
1.06978
1.36422
1.41074
1.68506
1.70897
-1.60168
-1.57078
-1.26374
-1.22518
-0.949187
-0.913451
-0.706499
-0.678534
-0.525599
-0.504525
-0.392036
-0.376275
-0.292546
-0.280463
-0.215026
-0.205181
-0.149781
-0.141034
-0.0893467
-0.0807779
-0.0275791
-0.0183774
0.0412136
0.0518609
0.123073
0.136085
0.225231
0.241749
0.357081
0.378554
0.530626
0.55866
0.75872
0.794553
1.05336
1.0972
1.42639
1.47291
1.82793
1.86396
-2.42929
-2.36682
-1.69966
-1.59595
-1.08303
-1.01925
-0.727168
-0.689113
-0.507094
-0.482204
-0.361069
-0.344338
-0.261236
-0.249548
-0.188693
-0.179791
-0.130323
-0.122694
-0.0772512
-0.0698369
-0.0228302
-0.0147583
0.0388895
0.0484941
0.114394
0.126601
0.212158
0.228499
0.344766
0.367599
0.531283
0.563991
0.799699
0.847457
1.20453
1.2798
1.86679
1.98383
2.71557
2.78378
-2.67453
-2.59288
-1.75778
-1.65407
-1.08671
-1.02293
-0.718276
-0.680221
-0.496034
-0.471145
-0.350846
-0.334115
-0.252917
-0.24123
-0.182482
-0.173579
-0.126117
-0.118488
-0.0749135
-0.0674993
-0.0222807
-0.0142088
0.0376552
0.0472598
0.11132
0.123526
0.20721
0.223551
0.338199
0.361031
0.524307
0.557015
0.796018
0.843776
1.21607
1.29134
1.93668
2.05373
2.95947
3.04838
-3.51944
-3.3872
-2.30073
-2.03534
-1.15629
-1.04042
-0.651886
-0.60373
-0.413491
-0.388225
-0.278489
-0.263806
-0.196
-0.186898
-0.140999
-0.134535
-0.0985807
-0.0930843
-0.0599303
-0.0543907
-0.0191183
-0.0127696
0.0289272
0.0368473
0.0898605
0.100347
0.171736
0.186425
0.288262
0.310191
0.464227
0.499096
0.748449
0.809738
1.27482
1.40722
2.37541
2.65877
3.81885
3.95751
-3.62649
-3.47068
-2.35759
-2.06969
-1.16578
-1.04008
-0.646875
-0.594632
-0.406512
-0.379102
-0.272244
-0.256315
-0.191034
-0.18116
-0.137386
-0.130374
-0.0962401
-0.0902774
-0.0587713
-0.0527616
-0.019106
-0.0122185
0.0277508
0.0363429
0.0873695
0.0987453
0.167744
0.183679
0.282615
0.306405
0.45712
0.494947
0.741835
0.808324
1.27807
1.4217
2.41476
2.72216
3.90697
4.07041
)
;

boundaryField
{
    movingWall
    {
        type            zeroGradient;
    }
    fixedWalls
    {
        type            zeroGradient;
    }
    frontAndBack
    {
        type            empty;
    }
}


// ************************************************************************* //
