# Probe 0 (-1.5 0 0)
# Probe 1 (-1.5 2 0)
# Probe 2 (-1.5 -2 0)
# Time        0             1             2            
0.01          (0.918316 -0.00372015 -0.000367914) (1.03994 0.028109 -0.000909169) (1.03979 -0.0280697 0.000128637)
0.02          (0.881822 -0.00820304 -0.000804521) (1.05984 0.0397968 -0.0011624) (1.05538 -0.0414366 -0.00016131)
0.03          (0.88757 -0.00518806 -0.000232649) (1.05664 0.0338283 -0.000208985) (1.05437 -0.0347888 -0.000395051)
0.04          (0.893148 -0.000352315 -3.8875e-05) (1.05175 0.0294504 0.000334896) (1.05413 -0.0297045 0.000114121)
0.05          (0.899595 -0.00244094 0.000295359) (1.05108 0.0285479 0.000539332) (1.05073 -0.0304287 4.77557e-05)
0.06          (0.904205 -0.00362489 0.000220244) (1.05041 0.0279237 0.000516196) (1.04971 -0.0295016 -0.000518643)
0.07          (0.903618 -0.00441008 3.41084e-05) (1.05201 0.0260709 0.000493001) (1.04839 -0.0296734 -0.000531749)
0.08          (0.904635 -0.00483276 -0.000117009) (1.05129 0.0262352 0.000275752) (1.04818 -0.0280778 -0.000718855)
0.09          (0.905905 -0.00631025 -1.61331e-05) (1.05163 0.0263515 -4.85179e-05) (1.04672 -0.0286104 -0.000722463)
0.1           (0.906196 -0.00833047 -0.00035383) (1.05374 0.0253101 0.000804726) (1.04403 -0.0305783 -1.66559e-05)
0.11          (0.90768 -0.00898075 -0.000232718) (1.05305 0.0257591 0.000214922) (1.04263 -0.0305331 0.000120774)
0.12          (0.907754 -0.00672059 -1.91886e-05) (1.05139 0.0256236 0.000441342) (1.04482 -0.0293677 0.000264638)
0.13          (0.908984 -0.00561609 -5.21396e-05) (1.05009 0.0253449 0.000296995) (1.04529 -0.028819 0.00013614)
0.14          (0.910123 -0.00385682 -0.000164959) (1.04731 0.0267312 0.000197518) (1.04642 -0.0285814 -5.26584e-06)
0.15          (0.908763 -0.00561267 -0.000169259) (1.0492 0.0256916 -0.000191467) (1.0461 -0.0280566 -0.000530193)
0.16          (0.910989 -0.00340333 -0.000189319) (1.04589 0.0276 -0.000256686) (1.04588 -0.0288652 -0.000395272)
0.17          (0.912372 -0.00249745 -2.99719e-05) (1.04342 0.0286627 0.000100001) (1.04599 -0.0294264 -0.000120237)
0.18          (0.910926 -0.00283546 -0.000194117) (1.04408 0.0287343 0.000191847) (1.04758 -0.0274857 -0.000343388)
0.19          (0.909434 -0.00538379 -0.000204727) (1.04664 0.0275453 0.000291234) (1.04751 -0.0265409 0.000171991)
0.2           (0.910148 -0.00382229 -0.000106754) (1.0453 0.0278577 -6.53169e-05) (1.0484 -0.0265261 -1.53596e-05)
0.21          (0.911725 -0.00349678 -8.77019e-05) (1.0447 0.0279178 9.51506e-05) (1.04703 -0.0274263 0.000171037)
0.22          (0.913361 -0.00595705 -0.000170942) (1.0452 0.0284719 2.5986e-05) (1.04264 -0.0307583 -4.98541e-05)
0.23          (0.914034 -0.00761521 -4.74971e-05) (1.04722 0.026364 -0.00080762) (1.0405 -0.0311204 9.79516e-05)
0.24          (0.915952 -0.00705402 0.000170053) (1.04632 0.0268849 -0.000247473) (1.03906 -0.0322341 -0.000633298)
0.25          (0.916303 -0.00683644 -0.000118965) (1.04491 0.0284321 3.09674e-05) (1.04009 -0.0311823 -0.000466924)
0.26          (0.915896 -0.00727234 -0.000207551) (1.0456 0.0276638 -0.000434554) (1.04018 -0.0302665 -0.000314645)
0.27          (0.914684 -0.00437577 -0.000461769) (1.04477 0.0275457 -7.06125e-05) (1.04238 -0.0297556 -4.76293e-05)
0.28          (0.914048 -0.00499859 -0.000286226) (1.04428 0.0284371 -0.000249957) (1.04265 -0.0298562 0.000161583)
0.29          (0.913307 -0.00654544 -0.000103183) (1.04785 0.0259767 4.25755e-05) (1.04053 -0.0311188 -7.50502e-05)
0.3           (0.9142 -0.00465479 -0.000137625) (1.0448 0.0277995 -9.32357e-05) (1.04247 -0.0298618 -0.000369499)
0.31          (0.914051 -0.00258304 -0.000297903) (1.0435 0.0278702 1.41166e-05) (1.04468 -0.028378 -0.000263086)
0.32          (0.915914 -0.0049857 -0.000297913) (1.04483 0.0278931 -0.000184223) (1.04087 -0.0306684 -0.000554761)
0.33          (0.916284 -0.00388955 -0.000144927) (1.04267 0.0290006 2.85656e-05) (1.04247 -0.0297766 -0.000809233)
0.34          (0.915405 0.000102393 0.000140042) (1.03959 0.0300472 -0.000127697) (1.04679 -0.0281615 5.13213e-05)
0.35          (0.915619 -0.00202678 -0.000357428) (1.04148 0.0295006 -0.000331819) (1.04292 -0.0306103 -0.000108789)
0.36          (0.915692 -0.00304201 -0.00039588) (1.04272 0.0285342 -0.000256079) (1.04265 -0.0298775 -4.3165e-05)
0.37          (0.917851 -0.00349549 -0.000279171) (1.04014 0.0314114 -0.000579935) (1.04177 -0.0305323 -0.000346148)
0.38          (0.919183 -0.00450118 -0.000125391) (1.03985 0.0317718 -0.000399758) (1.04035 -0.0315236 -0.000390663)
0.39          (0.916901 -0.00394774 -0.000486113) (1.04164 0.0303261 -0.000515731) (1.04176 -0.0302727 -0.000159009)
0.4           (0.917307 -0.00497207 -0.000498823) (1.04181 0.0305233 -5.25617e-05) (1.04157 -0.0294525 0.000286878)
0.41          (0.918275 -0.00381433 -0.000366353) (1.04046 0.0312576 0.000223509) (1.04178 -0.0298132 -0.00036989)
0.42          (0.919274 -0.00360555 -0.000353513) (1.03971 0.0317307 0.000708925) (1.04167 -0.0293684 -0.00074165)
0.43          (0.916502 -0.00434141 -0.000191585) (1.04214 0.0303441 0.0002647) (1.04219 -0.0292769 -0.00101578)
0.44          (0.91704 -0.00693479 -0.000169574) (1.04439 0.0288103 0.000193137) (1.03947 -0.0308725 -0.000257266)
0.45          (0.917095 -0.00666796 -0.000538958) (1.04417 0.0293075 0.000283417) (1.03943 -0.0310482 0.000286421)
0.46          (0.917432 -0.00521081 -0.000500723) (1.04273 0.0296657 0.000485449) (1.04054 -0.030535 -2.57224e-05)
0.47          (0.917831 0.000188909 -0.000663461) (1.03871 0.0297507 -9.99213e-05) (1.04507 -0.0286061 -0.000149426)
0.48          (0.919291 -0.00307437 -0.000398447) (1.03901 0.0311007 -0.00045502) (1.04198 -0.0303505 -0.000158041)
0.49          (0.918431 -0.00110674 -0.000450032) (1.03852 0.0306249 -0.000218125) (1.04437 -0.0284352 -0.000352265)
0.5           (0.919477 -0.00255375 -0.0006723) (1.03958 0.0301174 -0.000325544) (1.04144 -0.0301449 -0.000577803)
0.51          (0.919435 -0.00756208 -0.000359932) (1.04416 0.0279954 0.000614918) (1.0366 -0.0327585 -0.000321895)
0.52          (0.920455 -0.00412233 -0.000330997) (1.0398 0.0305915 0.000323669) (1.03823 -0.0335942 -0.000173521)
0.53          (0.918527 -0.00305875 -0.000528927) (1.04132 0.0288171 0.000551361) (1.04036 -0.0317026 -0.000591098)
0.54          (0.917711 -0.00575252 -0.000384384) (1.04482 0.0269004 0.000788628) (1.03817 -0.0319912 -0.000522044)
0.55          (0.920509 -0.00431572 -0.000680197) (1.04106 0.0293118 0.000583408) (1.0381 -0.0323183 -0.000594292)
0.56          (0.92062 -0.00598055 -0.000683985) (1.04226 0.0285913 -0.000288143) (1.03596 -0.033755 -0.000471993)
0.57          (0.920978 -0.00751111 -0.00061867) (1.04306 0.0280159 -7.84711e-05) (1.03491 -0.0342521 -0.000280657)
0.58          (0.921238 -0.0097025 -0.000788472) (1.04506 0.0270536 -0.000211891) (1.03241 -0.0350947 -0.000453849)
0.59          (0.920858 -0.00760155 -0.000959108) (1.04313 0.0276862 0.000493885) (1.03477 -0.033522 -0.000631667)
0.6           (0.922938 -0.00712211 -0.000788132) (1.04158 0.0288149 0.000407056) (1.03275 -0.0354936 -0.000688746)
0.61          (0.922893 -0.00474218 -0.000828434) (1.03863 0.0302515 0.000135373) (1.03551 -0.0345184 -0.000192595)
0.62          (0.923522 -0.00876369 -0.0010617) (1.04086 0.0289459 -3.10646e-05) (1.03197 -0.0354999 -0.000548512)
0.63          (0.923429 -0.0105007 -0.00145581) (1.04238 0.0280849 0.000398192) (1.03069 -0.0356057 -1.07593e-05)
0.64          (0.923698 -0.00679148 -0.00156787) (1.03881 0.0295418 0.00068964) (1.03367 -0.0348255 -0.000102448)
0.65          (0.923766 -0.00481093 -0.00168571) (1.03658 0.0303615 0.000480846) (1.03579 -0.0336448 -0.00105276)
0.66          (0.922718 -0.00141929 -0.00160531) (1.0337 0.0311617 0.000386584) (1.03965 -0.0316804 -0.000413876)
0.67          (0.923304 -0.00047984 -0.00185615) (1.03243 0.0316487 7.10272e-05) (1.03948 -0.0325294 -0.000801944)
0.68          (0.923471 -0.00263834 -0.00198111) (1.03371 0.0314073 -2.86891e-05) (1.03673 -0.0332901 -0.00101007)
0.69          (0.925276 -0.00208186 -0.00196104) (1.0313 0.0332249 2.99271e-05) (1.03551 -0.034353 -0.00101569)
0.7           (0.926594 -0.0044394 -0.00211845) (1.03232 0.0323628 0.000424721) (1.03209 -0.0369572 -0.000196663)
0.71          (0.927196 -0.000302445 -0.00194185) (1.02896 0.0330837 0.0010419) (1.03411 -0.0371215 -0.000213242)
0.72          (0.926166 -0.00553827 -0.00231932) (1.03371 0.030821 0.00123204) (1.03023 -0.0379027 -0.000401698)
0.73          (0.925489 -0.00342212 -0.00255217) (1.03151 0.0317163 0.00199086) (1.03289 -0.0360293 5.66423e-05)
0.74          (0.924431 -0.00384078 -0.00299005) (1.03174 0.0308581 0.00186044) (1.03363 -0.0344966 -0.000396617)
0.75          (0.925551 -0.00700931 -0.0031192) (1.03328 0.0300112 0.00186691) (1.02953 -0.036858 -0.000392089)
0.76          (0.926539 -0.00715904 -0.00304355) (1.03133 0.0308833 0.00168554) (1.02971 -0.0359829 -0.000247231)
0.77          (0.925709 -0.00595372 -0.00339543) (1.03047 0.0306946 0.00191556) (1.03085 -0.0353707 -0.000671298)
0.78          (0.927042 -0.00484534 -0.00331379) (1.0279 0.031692 0.00169416) (1.03001 -0.0363048 -0.00107998)
0.79          (0.925914 -0.00467804 -0.00411366) (1.02826 0.0306761 0.00167378) (1.03081 -0.0351439 -0.00129177)
0.8           (0.927318 -0.00723256 -0.00419911) (1.02851 0.0311344 0.00219977) (1.02767 -0.036225 -0.000455441)
0.81          (0.928088 -0.00707858 -0.0040856) (1.0253 0.0329036 0.00254122) (1.02878 -0.0348642 -0.000856584)
0.82          (0.927312 -0.00787165 -0.00478577) (1.02605 0.032132 0.00270709) (1.02789 -0.0355074 -0.0011864)
0.83          (0.927695 -0.00793813 -0.00525525) (1.02532 0.0321654 0.00266141) (1.02755 -0.0346607 -0.00101601)
0.84          (0.927326 -0.00433821 -0.00538953) (1.02182 0.032512 0.00257807) (1.03147 -0.0320784 -0.00130476)
0.85          (0.927883 -0.00555448 -0.00557305) (1.02239 0.0315182 0.0027713) (1.02964 -0.0329165 -0.00153086)
0.86          (0.92849 -0.00954015 -0.00593964) (1.02512 0.0299375 0.00354868) (1.02602 -0.0335364 -0.00191026)
0.87          (0.929355 -0.00818518 -0.00600278) (1.0218 0.032128 0.00412503) (1.02723 -0.0327304 -0.00190453)
0.88          (0.930661 -0.00754787 -0.00688426) (1.0186 0.0345637 0.00438585) (1.0269 -0.0330987 -0.00117952)
0.89          (0.93042 -0.00552078 -0.00683309) (1.01589 0.0352304 0.00422429) (1.02993 -0.0307867 -0.000870059)
0.9           (0.930848 -0.00464885 -0.00715284) (1.01358 0.0361987 0.00474412) (1.03256 -0.0285086 -0.00153789)
0.91          (0.930194 -0.00229025 -0.00741518) (1.01317 0.0353374 0.0054405) (1.03391 -0.0276585 -0.00155482)
0.92          (0.930068 -0.00579696 -0.00782111) (1.01684 0.033327 0.00596212) (1.03107 -0.0286763 -0.00124942)
0.93          (0.931691 -0.00781257 -0.00805195) (1.01742 0.0336006 0.00588815) (1.02842 -0.0292214 -0.00127615)
0.94          (0.934244 -0.00692958 -0.00832756) (1.01344 0.0362339 0.00618563) (1.02882 -0.0294386 -0.00107996)
0.95          (0.934199 -0.00455074 -0.00852283) (1.01037 0.0381114 0.00642363) (1.03238 -0.0267144 -0.000728738)
0.96          (0.93666 -0.00375479 -0.00897059) (1.00915 0.0387034 0.00748648) (1.03255 -0.0262517 -0.000805117)
0.97          (0.936041 -0.00495981 -0.00903049) (1.01035 0.0379833 0.00833884) (1.03424 -0.0235002 -3.40614e-05)
0.98          (0.935863 -0.00854112 -0.00905858) (1.01444 0.0367746 0.00892501) (1.03139 -0.0248304 0.000614865)
0.99          (0.935816 -0.00600627 -0.0093149) (1.01398 0.0375351 0.00915926) (1.03352 -0.0238084 0.00122097)
1             (0.936948 -0.00775777 -0.00951421) (1.01439 0.0380473 0.009283) (1.03291 -0.0243418 0.00202324)
1.01          (0.941516 -0.00611765 -0.00987818) (1.01052 0.0414646 0.00961651) (1.03276 -0.0248175 0.0021714)
1.02          (0.940831 -0.00182022 -0.00996808) (1.00808 0.0429395 0.0107722) (1.03926 -0.0205398 0.00295581)
1.03          (0.941978 -0.00535977 -0.0101356) (1.01306 0.0416435 0.0109903) (1.03565 -0.022205 0.00444336)
1.04          (0.944438 -0.0043971 -0.0103587) (1.01271 0.0426616 0.0115711) (1.03656 -0.0213125 0.0048828)
1.05          (0.947188 -0.00483595 -0.0101659) (1.01226 0.045326 0.011328) (1.03502 -0.022766 0.0059229)
1.06          (0.946599 -0.00147529 -0.0100122) (1.01259 0.0456769 0.0114448) (1.03921 -0.0209323 0.00721084)
1.07          (0.947544 -0.00165402 -0.0101201) (1.01635 0.04351 0.0115824) (1.03901 -0.0206184 0.00775484)
1.08          (0.949454 0.00128771 -0.0107478) (1.01313 0.0472871 0.0112002) (1.04269 -0.0190654 0.00905701)
1.09          (0.949458 0.00249867 -0.0105238) (1.01521 0.0475117 0.011068) (1.04557 -0.0171493 0.0101689)
1.1           (0.950057 0.00123382 -0.010524) (1.02114 0.0451408 0.0110905) (1.0435 -0.0177745 0.0115407)
1.11          (0.951807 8.81459e-05 -0.0108245) (1.02457 0.0451838 0.0104844) (1.04212 -0.0186754 0.0127449)
1.12          (0.955001 0.00199899 -0.0108529) (1.02216 0.0496037 0.0108637) (1.04353 -0.0188767 0.0135062)
1.13          (0.955433 0.000781857 -0.0104613) (1.02694 0.0485097 0.0114478) (1.04287 -0.0188869 0.0154572)
1.14          (0.956751 0.00248036 -0.0103201) (1.02794 0.049892 0.0104885) (1.04467 -0.0177884 0.0167759)
1.15          (0.95826 0.00162131 -0.0103733) (1.03173 0.0496507 0.00933851) (1.04296 -0.0190923 0.0179417)
1.16          (0.959301 0.00340009 -0.0101664) (1.03383 0.0501439 0.00903675) (1.04302 -0.0207384 0.0195891)
1.17          (0.958964 0.00779236 -0.0102957) (1.03421 0.0508874 0.00843571) (1.04833 -0.0174625 0.0209362)
1.18          (0.958361 0.00758673 -0.0102301) (1.03979 0.0498192 0.00725707) (1.04743 -0.0178341 0.0222319)
1.19          (0.959828 0.00606651 -0.0104545) (1.04561 0.0480111 0.00615072) (1.04507 -0.0190047 0.0236733)
1.2           (0.961912 0.010134 -0.0102112) (1.04436 0.05106 0.00570643) (1.04587 -0.0200303 0.0244484)
1.21          (0.963725 0.0121322 -0.0100147) (1.04559 0.0522256 0.00417567) (1.04517 -0.0212489 0.0249568)
1.22          (0.963126 0.0133861 -0.00987288) (1.04821 0.0527265 0.00254238) (1.04734 -0.0191566 0.0261692)
1.23          (0.963872 0.0135307 -0.00981497) (1.05095 0.053079 0.000617978) (1.04687 -0.0188112 0.0265401)
1.24          (0.966296 0.0132394 -0.00948532) (1.05289 0.0546335 -2.3668e-05) (1.04389 -0.0206944 0.0273466)
1.25          (0.966403 0.0115583 -0.00930081) (1.05984 0.0522221 -0.0011085) (1.04028 -0.0221894 0.0280287)
1.26          (0.966306 0.0168039 -0.00894281) (1.05899 0.0542506 -0.002289) (1.04279 -0.0218715 0.0282453)
1.27          (0.965259 0.0164081 -0.00835052) (1.06314 0.0540892 -0.00353335) (1.04159 -0.0218929 0.0284941)
1.28          (0.96595 0.0181921 -0.00790646) (1.06414 0.0544162 -0.00517744) (1.04193 -0.0215401 0.028859)
1.29          (0.966711 0.0215915 -0.00768791) (1.06425 0.0550233 -0.00674414) (1.04202 -0.0215336 0.028824)
1.3           (0.968835 0.0213211 -0.00727645) (1.06447 0.0573168 -0.00826529) (1.03833 -0.0240566 0.0283943)
1.31          (0.969952 0.0208022 -0.00648052) (1.06685 0.0571148 -0.00946946) (1.03484 -0.0256309 0.0276489)
1.32          (0.970766 0.0218093 -0.00587542) (1.06869 0.0565687 -0.0102486) (1.03279 -0.0260237 0.027147)
1.33          (0.969367 0.0213037 -0.00508247) (1.07172 0.0561166 -0.0116471) (1.03085 -0.0261229 0.0262376)
1.34          (0.967905 0.0214001 -0.00432738) (1.07398 0.0557656 -0.0136045) (1.03012 -0.0258621 0.0250671)
1.35          (0.965648 0.0188782 -0.00340523) (1.07915 0.0538193 -0.0148866) (1.02676 -0.0262154 0.0229152)
1.36          (0.964769 0.0198053 -0.00258719) (1.08031 0.053648 -0.0156214) (1.02482 -0.027083 0.0214162)
1.37          (0.965017 0.0218231 -0.00184304) (1.08011 0.0539824 -0.0162493) (1.0236 -0.0273279 0.0201958)
1.38          (0.965447 0.0209263 -0.00108563) (1.07992 0.0549661 -0.0171574) (1.02012 -0.0287769 0.0184271)
1.39          (0.964443 0.0201682 7.98387e-08) (1.08154 0.0542269 -0.0182138) (1.0173 -0.0292553 0.0168808)
1.4           (0.963057 0.0224528 0.00132088) (1.08126 0.053975 -0.0188915) (1.01751 -0.0275393 0.0148826)
1.41          (0.961757 0.0215047 0.00202608) (1.08315 0.0525732 -0.0198996) (1.01464 -0.0283721 0.0127903)
1.42          (0.96055 0.0234595 0.00292607) (1.08154 0.0524818 -0.0201374) (1.01466 -0.027877 0.0107578)
1.43          (0.96109 0.0210565 0.00387997) (1.08238 0.0536424 -0.0208095) (1.0087 -0.029929 0.00795186)
1.44          (0.960107 0.0195149 0.00515476) (1.08418 0.0527278 -0.0212832) (1.00449 -0.0314303 0.00533474)
1.45          (0.957804 0.019975 0.00602795) (1.08422 0.051559 -0.0215345) (1.00497 -0.0289157 0.00312796)
1.46          (0.95629 0.0196484 0.00689357) (1.08258 0.0519532 -0.0218188) (1.00485 -0.0278451 0.000551287)
1.47          (0.95494 0.020116 0.00804829) (1.08229 0.0512476 -0.02223) (1.0029 -0.0286526 -0.00186784)
1.48          (0.954411 0.0189069 0.00919472) (1.08163 0.0516563 -0.0219097) (0.999629 -0.0296783 -0.0044341)
1.49          (0.953875 0.0120159 0.00980694) (1.08676 0.0490373 -0.0216452) (0.991182 -0.0327646 -0.00715147)
1.5           (0.954897 0.012503 0.0104394) (1.08354 0.0504495 -0.0211991) (0.988716 -0.0333642 -0.00952668)
1.51          (0.952974 0.0106169 0.0116251) (1.08246 0.05176 -0.0210718) (0.987794 -0.0314925 -0.0119403)
1.52          (0.949858 0.00679779 0.012034) (1.08623 0.0484462 -0.0205256) (0.984189 -0.0316819 -0.013736)
1.53          (0.94745 0.00742498 0.0126054) (1.08397 0.0484877 -0.0201166) (0.985889 -0.0291182 -0.0160293)
1.54          (0.945684 0.00937925 0.0132041) (1.08103 0.0490734 -0.0191755) (0.986428 -0.0289278 -0.0178061)
1.55          (0.946552 0.0046962 0.0138181) (1.08255 0.0478004 -0.0184559) (0.979587 -0.0321614 -0.0193809)
1.56          (0.944615 0.00573639 0.0141385) (1.08065 0.0473915 -0.0174012) (0.980156 -0.0307365 -0.0210225)
1.57          (0.945015 0.00480614 0.0142567) (1.07787 0.0480652 -0.0161673) (0.97881 -0.0308342 -0.0222986)
1.58          (0.942833 0.00423127 0.0142923) (1.07568 0.0487699 -0.0153606) (0.979767 -0.0296117 -0.0236042)
1.59          (0.939814 0.00272594 0.014453) (1.0762 0.0476197 -0.0138642) (0.979581 -0.0289578 -0.024212)
1.6           (0.939144 0.00205497 0.0140193) (1.0742 0.0481621 -0.012665) (0.978516 -0.0282731 -0.0247854)
1.61          (0.938236 0.00147674 0.013729) (1.0722 0.0480041 -0.011423) (0.978859 -0.0270249 -0.0257917)
1.62          (0.936465 -0.000274126 0.0134802) (1.07057 0.0482994 -0.0105661) (0.979093 -0.0264589 -0.0259235)
1.63          (0.936029 -0.000147141 0.0131476) (1.06751 0.0485853 -0.00858593) (0.978883 -0.0267934 -0.0260563)
1.64          (0.934518 0.00032108 0.0125951) (1.06621 0.0475444 -0.00664976) (0.979469 -0.0262359 -0.0262086)
1.65          (0.932992 -0.00402185 0.0120707) (1.06832 0.0452407 -0.0050428) (0.977315 -0.025821 -0.0260893)
1.66          (0.931432 -0.00393844 0.0111957) (1.06613 0.0449748 -0.00290493) (0.978731 -0.0245899 -0.0249563)
1.67          (0.928655 -0.00536522 0.00986098) (1.06664 0.0431896 -0.00126296) (0.978681 -0.0243833 -0.0247366)
1.68          (0.928208 -0.00635383 0.00867665) (1.06541 0.0414873 0.000873965) (0.978292 -0.0240755 -0.0237804)
1.69          (0.927406 -0.00603682 0.00772266) (1.06213 0.0420323 0.00230255) (0.980903 -0.0224319 -0.0235381)
1.7           (0.92676 -0.00851231 0.00655637) (1.06079 0.0416128 0.00425257) (0.981087 -0.0219959 -0.0224008)
1.71          (0.926773 -0.00691808 0.00510053) (1.05721 0.0409006 0.00589189) (0.982941 -0.0210106 -0.0211547)
1.72          (0.926899 -0.00780863 0.00387762) (1.05394 0.0416201 0.00709263) (0.984067 -0.0207025 -0.019407)
1.73          (0.926363 -0.010915 0.00247748) (1.05387 0.0404515 0.00891046) (0.982653 -0.0219148 -0.0178696)
1.74          (0.927187 -0.00823309 0.000961648) (1.04808 0.0414787 0.0108216) (0.987057 -0.0198461 -0.0166014)
1.75          (0.926118 -0.00865144 -0.000767883) (1.04577 0.0413836 0.0122109) (0.989278 -0.0185183 -0.0148746)
1.76          (0.92575 -0.00802583 -0.00236365) (1.04412 0.0395391 0.0142159) (0.990234 -0.0187467 -0.0137037)
1.77          (0.925042 -0.0109327 -0.00383222) (1.04476 0.0370958 0.0154608) (0.99008 -0.0194368 -0.0119987)
1.78          (0.924794 -0.0144976 -0.00576502) (1.04634 0.0342573 0.016068) (0.988776 -0.0202184 -0.0107517)
1.79          (0.924673 -0.0138953 -0.00725668) (1.043 0.034001 0.0167382) (0.992362 -0.0187191 -0.00925425)
1.8           (0.924828 -0.0149972 -0.00906461) (1.04154 0.0326538 0.0178822) (0.993676 -0.0190906 -0.0075764)
1.81          (0.926381 -0.0149442 -0.0108567) (1.0395 0.0309045 0.0187063) (0.994335 -0.0198717 -0.0058232)
1.82          (0.925284 -0.0163247 -0.0122989) (1.03837 0.0298405 0.0195983) (0.996992 -0.0189535 -0.00409986)
1.83          (0.92627 -0.0168373 -0.0138237) (1.03569 0.0287427 0.0202203) (0.998743 -0.018456 -0.00318799)
1.84          (0.928269 -0.0161721 -0.0152868) (1.03182 0.0287431 0.0202642) (1.00089 -0.0189755 -0.00169581)
1.85          (0.929053 -0.0161936 -0.0171176) (1.02998 0.0273482 0.0209187) (1.00429 -0.0166503 0.000157747)
1.86          (0.930584 -0.0155269 -0.0186004) (1.0275 0.0269798 0.0209438) (1.00498 -0.01786 0.00162441)
1.87          (0.930871 -0.017716 -0.0198692) (1.02735 0.0250974 0.0205998) (1.00619 -0.0172644 0.00283332)
1.88          (0.931717 -0.0178605 -0.0215742) (1.02444 0.0252998 0.0195673) (1.00864 -0.0170674 0.00366766)
1.89          (0.934535 -0.0179989 -0.0224178) (1.02198 0.0247306 0.0189381) (1.00833 -0.0189577 0.00417149)
1.9           (0.933542 -0.0202564 -0.023548) (1.02303 0.0225646 0.0179415) (1.01052 -0.0173847 0.00475165)
1.91          (0.934835 -0.0166974 -0.0243784) (1.01949 0.0215195 0.0168165) (1.01445 -0.0168366 0.0055384)
1.92          (0.936615 -0.0180317 -0.025127) (1.01906 0.020009 0.0150321) (1.01461 -0.0175932 0.00536387)
1.93          (0.939259 -0.0192008 -0.0257393) (1.01849 0.0186359 0.013599) (1.0135 -0.0193108 0.00653528)
1.94          (0.941021 -0.0188993 -0.0265633) (1.01635 0.0189469 0.0117394) (1.0142 -0.0197011 0.00681271)
1.95          (0.944286 -0.0174036 -0.0267871) (1.01197 0.0203779 0.0106432) (1.01579 -0.0198955 0.00730541)
1.96          (0.94526 -0.0180047 -0.026952) (1.01267 0.0174537 0.0084967) (1.01676 -0.0199557 0.00671721)
1.97          (0.947665 -0.0195671 -0.0268489) (1.01314 0.0161807 0.00636347) (1.01487 -0.0212227 0.00662522)
1.98          (0.949947 -0.0176303 -0.0271434) (1.00998 0.0171845 0.00332094) (1.01628 -0.0207281 0.00609801)
1.99          (0.950498 -0.0184959 -0.0268903) (1.01272 0.0147871 0.000471814) (1.01425 -0.0227731 0.00523556)
2             (0.953051 -0.0151972 -0.0261799) (1.00893 0.0157007 -0.00182436) (1.01686 -0.0217264 0.00449017)
2.01          (0.954995 -0.0187057 -0.0253412) (1.01009 0.0155673 -0.00441854) (1.01468 -0.0218337 0.00390609)
2.02          (0.957152 -0.0196278 -0.0244504) (1.01297 0.0129189 -0.00695408) (1.01051 -0.0250789 0.00321369)
2.03          (0.96085 -0.0160638 -0.0233762) (1.00766 0.0157198 -0.00921357) (1.0115 -0.0259237 0.00195282)
2.04          (0.960859 -0.0169927 -0.0221174) (1.01004 0.0146735 -0.0119369) (1.01082 -0.0252853 0.00106163)
2.05          (0.962871 -0.0132569 -0.0205103) (1.00619 0.0164628 -0.014795) (1.01286 -0.0243942 -0.000121332)
2.06          (0.96622 -0.013572 -0.0193335) (1.00516 0.0181033 -0.0167021) (1.01002 -0.0254326 -0.00176097)
2.07          (0.966079 -0.0130792 -0.0176427) (1.00736 0.0165072 -0.0187351) (1.01068 -0.0239994 -0.00309818)
2.08          (0.967352 -0.0127362 -0.0156585) (1.00806 0.0161204 -0.0205288) (1.00953 -0.0245012 -0.00469921)
2.09          (0.967599 -0.00997644 -0.0136142) (1.0066 0.0174112 -0.0229147) (1.01132 -0.023824 -0.00637068)
2.1           (0.968829 -0.0100392 -0.0118997) (1.00779 0.0171913 -0.0251709) (1.00989 -0.0227577 -0.00779108)
2.11          (0.971212 -0.00951182 -0.0096128) (1.0074 0.0178471 -0.0266422) (1.00715 -0.0242436 -0.00973978)
2.12          (0.973111 -0.0108709 -0.00773643) (1.01005 0.0176503 -0.0278641) (1.00261 -0.0266745 -0.0115532)
2.13          (0.971004 -0.0098424 -0.00533657) (1.01255 0.0161296 -0.0284414) (1.00417 -0.0248007 -0.0129626)
2.14          (0.97052 -0.00647032 -0.00305586) (1.00994 0.0193718 -0.0296836) (1.00753 -0.0223301 -0.0146439)
2.15          (0.972941 -0.00377349 -0.000786906) (1.00725 0.0219863 -0.0303953) (1.00721 -0.0225335 -0.0166217)
2.16          (0.97264 -0.00539892 0.00126379) (1.01006 0.0221031 -0.0308416) (1.00486 -0.0227899 -0.0185635)
2.17          (0.972502 -0.00293797 0.00377606) (1.00879 0.0238587 -0.0319923) (1.00619 -0.0219055 -0.0210177)
2.18          (0.972638 -0.000325709 0.00624157) (1.00999 0.0233589 -0.0310899) (1.00584 -0.0222365 -0.0231244)
2.19          (0.970189 0.000757234 0.00803421) (1.01131 0.0236337 -0.0311563) (1.00768 -0.0205561 -0.0247186)
2.2           (0.969497 0.00124121 0.00993171) (1.01167 0.025051 -0.0304016) (1.00781 -0.0207936 -0.0261433)
2.21          (0.967528 0.00499067 0.0119514) (1.01077 0.0255108 -0.0294692) (1.01056 -0.0202849 -0.0279644)
2.22          (0.963882 0.00251939 0.013564) (1.01707 0.0228971 -0.0277556) (1.01024 -0.0187831 -0.0298105)
2.23          (0.96226 0.00652752 0.0155889) (1.01387 0.0247852 -0.0267507) (1.01516 -0.0159044 -0.0304842)
2.24          (0.962014 0.00750329 0.0173436) (1.01269 0.0263084 -0.0248228) (1.01702 -0.0146866 -0.0319228)
2.25          (0.960649 0.0111344 0.018697) (1.01184 0.0262105 -0.022412) (1.01964 -0.01487 -0.0320308)
2.26          (0.959323 0.0138226 0.0199809) (1.01095 0.0268427 -0.020674) (1.02158 -0.0153895 -0.032805)
2.27          (0.956704 0.0119542 0.0210373) (1.01399 0.0253107 -0.018391) (1.02293 -0.0139111 -0.0329445)
2.28          (0.955009 0.010229 0.0222245) (1.01588 0.025386 -0.015779) (1.02346 -0.0138848 -0.033696)
2.29          (0.953447 0.0124875 0.0232265) (1.01448 0.0252559 -0.013249) (1.02732 -0.0127976 -0.0334744)
2.3           (0.951576 0.0102002 0.0240179) (1.01585 0.025691 -0.0100495) (1.02816 -0.0129826 -0.033653)
2.31          (0.94922 0.0100659 0.0245288) (1.01515 0.0262462 -0.00760773) (1.03143 -0.012267 -0.0335108)
2.32          (0.94476 0.00724792 0.0246164) (1.02197 0.0212778 -0.00415495) (1.03228 -0.0121758 -0.0332141)
2.33          (0.943056 0.0107661 0.0254303) (1.01862 0.0223443 -0.000897663) (1.03928 -0.00984423 -0.0330215)
2.34          (0.942351 0.0129758 0.0255195) (1.01455 0.0244648 0.00233551) (1.04398 -0.00940525 -0.0324073)
2.35          (0.938928 0.0134578 0.025688) (1.01677 0.0217987 0.00644591) (1.04768 -0.009402 -0.031505)
2.36          (0.9374 0.00953667 0.0256528) (1.0201 0.0189461 0.00901738) (1.04752 -0.0106816 -0.0312307)
2.37          (0.938409 0.0126524 0.0255734) (1.01417 0.0218081 0.0123347) (1.05271 -0.00995655 -0.030137)
2.38          (0.936844 0.0110087 0.0254056) (1.01629 0.0195613 0.015095) (1.05475 -0.00976567 -0.0288014)
2.39          (0.934379 0.00909469 0.0249883) (1.01632 0.0189888 0.0178258) (1.059 -0.00865672 -0.0278196)
2.4           (0.934081 0.00830675 0.0244244) (1.01668 0.0177177 0.0207095) (1.05927 -0.0110078 -0.0279859)
2.41          (0.934797 0.00837434 0.0238986) (1.01323 0.0191127 0.02311) (1.06209 -0.0122526 -0.0270395)
2.42          (0.933582 0.00670217 0.0236828) (1.0142 0.0176667 0.0253383) (1.06458 -0.0121051 -0.0254865)
2.43          (0.933562 0.00869858 0.0231964) (1.01139 0.0180681 0.0279891) (1.06868 -0.0121903 -0.0245031)
2.44          (0.933607 0.00595605 0.0229636) (1.0124 0.0166247 0.0297212) (1.06846 -0.0134234 -0.0234345)
2.45          (0.932868 0.00187471 0.0222768) (1.01366 0.0160957 0.0310918) (1.06877 -0.0145326 -0.0223578)
2.46          (0.934036 0.0040842 0.0217366) (1.00874 0.0180837 0.0323954) (1.0736 -0.0132833 -0.0215597)
2.47          (0.930705 -0.00117193 0.0208291) (1.01436 0.0140768 0.0334709) (1.07393 -0.0127865 -0.0202474)
2.48          (0.930523 -0.000634093 0.0199869) (1.01303 0.0133836 0.0350324) (1.07649 -0.0128859 -0.0201212)
2.49          (0.932416 -0.00310736 0.0193172) (1.01179 0.0141847 0.0347964) (1.07473 -0.0153086 -0.0204704)
2.5           (0.934265 -0.00358231 0.018639) (1.00923 0.0162209 0.0351522) (1.07405 -0.0172508 -0.0201254)
2.51          (0.936362 -0.00822252 0.0173994) (1.01155 0.0147546 0.0353045) (1.06969 -0.0199347 -0.0195444)
2.52          (0.937258 -0.00947051 0.0165849) (1.01282 0.0126116 0.034166) (1.06811 -0.0217286 -0.0193022)
2.53          (0.937502 -0.0102096 0.0157666) (1.01274 0.0124342 0.0337052) (1.06806 -0.0222013 -0.0192414)
2.54          (0.93659 -0.0115087 0.0151129) (1.01416 0.0108071 0.0331334) (1.06767 -0.0221092 -0.0199513)
2.55          (0.940311 -0.0122436 0.0139966) (1.01168 0.0119971 0.032102) (1.06484 -0.0239629 -0.0204364)
2.56          (0.940485 -0.0133303 0.0131139) (1.01292 0.0104007 0.0306617) (1.06376 -0.024925 -0.021217)
2.57          (0.941734 -0.0147463 0.0121565) (1.01234 0.0110173 0.029076) (1.06181 -0.0259811 -0.0224036)
2.58          (0.944749 -0.012322 0.0109646) (1.00773 0.013852 0.0266338) (1.06104 -0.026756 -0.0232746)
2.59          (0.947552 -0.0143341 0.00972149) (1.00781 0.0144944 0.0245474) (1.05515 -0.0304216 -0.024222)
2.6           (0.948347 -0.0163839 0.00866762) (1.00871 0.0147031 0.0221733) (1.05155 -0.031942 -0.0255471)
2.61          (0.9497 -0.0145168 0.00736633) (1.0068 0.0152472 0.0195107) (1.05082 -0.032651 -0.0266124)
2.62          (0.949666 -0.0105111 0.00587016) (1.00255 0.0169181 0.0166527) (1.05308 -0.0315719 -0.028051)
2.63          (0.949133 -0.0105984 0.00421136) (1.00168 0.017401 0.0139717) (1.05289 -0.0303797 -0.028823)
2.64          (0.950239 -0.0158746 0.00283318) (1.0058 0.0167184 0.0114457) (1.04464 -0.0338212 -0.0298361)
2.65          (0.951155 -0.018386 0.00113915) (1.00715 0.0171613 0.00861476) (1.03932 -0.0367366 -0.0311042)
2.66          (0.951254 -0.0163852 -0.000300467) (1.00558 0.0173009 0.00545537) (1.03861 -0.037106 -0.0326973)
2.67          (0.952607 -0.0106469 -0.00172543) (0.999683 0.020196 0.0023357) (1.04013 -0.0370067 -0.033593)
2.68          (0.951899 -0.013644 -0.00361042) (1.00276 0.0189378 -0.000254914) (1.03498 -0.0396888 -0.0344136)
2.69          (0.95197 -0.015695 -0.00552992) (1.00415 0.0190896 -0.00292353) (1.03 -0.0428313 -0.0351913)