# Probe 0 (-1.5 0 0)
# Probe 1 (-1.5 2 0)
# Probe 2 (-1.5 -2 0)
# Time        0             1             2            
0.01          (0.916051 -0.00127368 -8.05888e-05) (1.03724 0.0286993 -0.000674129) (1.04551 -0.0242663 -0.000509047)
0.02          (0.878845 -0.00634366 -1.19504e-05) (1.05615 0.0414253 -0.000652236) (1.06332 -0.035494 -0.000548195)
0.03          (0.88679 -0.00568167 -7.24074e-06) (1.05394 0.0353814 -2.1473e-05) (1.05891 -0.0310002 8.33482e-05)
0.04          (0.894332 -0.00244443 0.000150497) (1.05019 0.0311784 0.00048132) (1.05504 -0.0279555 0.000376206)
0.05          (0.899864 -0.00348584 5.4134e-05) (1.05051 0.0290761 9.79932e-05) (1.0522 -0.0279947 -0.00010984)
0.06          (0.902763 -0.00330985 0.000214988) (1.05011 0.0273663 0.000373032) (1.0534 -0.0263427 -6.34026e-05)
0.07          (0.903063 -0.00306345 0.000200138) (1.05015 0.0261909 0.000344851) (1.05287 -0.0262223 0.000102551)
0.08          (0.905563 -0.00342561 0.000320027) (1.04777 0.0290174 0.000280302) (1.04988 -0.0284458 0.00041804)
0.09          (0.905506 -0.00319736 0.000181179) (1.04692 0.0290761 0.000363914) (1.05133 -0.0268495 0.000557001)
0.1           (0.906018 -0.00519776 -0.000204805) (1.04828 0.0280325 3.85676e-06) (1.04949 -0.0274911 0.000110252)
0.11          (0.908237 -0.00609199 -3.21837e-05) (1.04842 0.0278569 0.000104338) (1.04757 -0.0280904 -0.000247197)
0.12          (0.909988 -0.00724603 -0.000104977) (1.04925 0.0276621 0.000262721) (1.04448 -0.0296586 2.20537e-05)
0.13          (0.909751 -0.00494036 -0.000147592) (1.04568 0.0296957 0.000192162) (1.04775 -0.028106 8.47075e-05)
0.14          (0.910594 -0.00866892 0.000182626) (1.04872 0.0284631 0.000216897) (1.04404 -0.0290982 5.01648e-05)
0.15          (0.909694 -0.00576134 9.98416e-05) (1.04717 0.0279522 -4.7771e-05) (1.04683 -0.0268969 -4.51203e-05)
0.16          (0.909013 -0.0037171 0.000219967) (1.04663 0.0267059 0.000520583) (1.04867 -0.0265993 -0.000180439)
0.17          (0.908566 -0.00902719 -8.01756e-06) (1.05182 0.02459 0.000279206) (1.04381 -0.0285089 0.000458337)
0.18          (0.908185 -0.00715049 -0.000216597) (1.04991 0.0254244 0.000272055) (1.04638 -0.0272158 7.33351e-05)
0.19          (0.913058 -0.00293992 0.000147199) (1.04308 0.0293359 0.000164794) (1.04604 -0.0282765 -7.46247e-05)
0.2           (0.912948 -0.00334142 -3.84874e-05) (1.04262 0.0299859 0.000405057) (1.04641 -0.0275452 0.000266175)
0.21          (0.912411 -0.00681073 0.000200095) (1.04545 0.0287277 0.000247035) (1.04409 -0.028767 0.00056237)
0.22          (0.914713 -0.00377851 0.000295855) (1.0424 0.030338 3.22296e-05) (1.04373 -0.0294334 0.00031186)
0.23          (0.912746 -0.00362556 0.000247529) (1.04446 0.0283177 0.000160356) (1.04501 -0.028498 0.000183173)
0.24          (0.9146 -0.00525109 0.000134554) (1.04387 0.0291461 -4.50166e-05) (1.04267 -0.029927 -4.26801e-05)
0.25          (0.913352 -0.0052338 1.88978e-05) (1.04414 0.0284429 0.000273274) (1.04487 -0.0274201 -0.000628309)
0.26          (0.913514 -0.00132102 0.000149744) (1.04097 0.0290104 0.000720698) (1.04773 -0.0267704 -0.000976382)
0.27          (0.915035 -0.00403241 0.000174428) (1.04118 0.0293817 9.67871e-05) (1.04503 -0.0280208 -0.000356589)
0.28          (0.916802 -0.000118822 0.000136173) (1.03675 0.031302 0.000209013) (1.04661 -0.0281317 0.000185982)
0.29          (0.91504 -0.00107446 0.000124969) (1.0384 0.030367 0.000176186) (1.04776 -0.0269296 -5.40966e-06)
0.3           (0.914781 -0.000295911 0.000288963) (1.03882 0.0294631 4.46322e-05) (1.04821 -0.0268612 0.000416886)
0.31          (0.915543 -0.00319635 0.000371544) (1.04168 0.0279475 0.000450448) (1.04531 -0.0270802 0.000256439)
0.32          (0.914673 -0.00756151 0.000388813) (1.04441 0.0281673 0.000501157) (1.04283 -0.0271185 0.000406638)
0.33          (0.917883 -0.00711915 0.000422845) (1.04173 0.0304453 0.000207755) (1.04025 -0.0297232 0.000569533)
0.34          (0.918441 -0.00783584 0.000346588) (1.04202 0.0303017 0.000338157) (1.03871 -0.0308315 0.000889695)
0.35          (0.917523 -0.0112346 0.000458785) (1.04422 0.0300577 0.000426868) (1.03636 -0.0319037 0.0004045)
0.36          (0.916422 -0.00749485 0.000262511) (1.04297 0.0294148 0.000319205) (1.04041 -0.0296541 0.00056465)
0.37          (0.917629 -0.00732228 0.000100891) (1.04203 0.0304077 5.36929e-05) (1.04013 -0.0298709 0.000264999)
0.38          (0.917113 -0.00496735 0.000296538) (1.04127 0.0300185 0.000261848) (1.04177 -0.0293765 0.000418139)
0.39          (0.918292 -0.00468669 0.000340323) (1.03946 0.0313213 0.000215393) (1.04169 -0.0292269 0.000289834)
0.4           (0.918047 -0.00537773 0.000323448) (1.04064 0.0304455 0.00013946) (1.04084 -0.0299561 3.52747e-05)
0.41          (0.918315 -0.00875999 0.000290868) (1.04283 0.0299466 0.000150744) (1.03808 -0.0311928 0.000598018)
0.42          (0.920224 -0.00739239 0.000445047) (1.03855 0.0330046 7.62017e-05) (1.03911 -0.0306345 0.000344158)
0.43          (0.919408 -0.00541159 0.000282255) (1.03854 0.0318845 0.000166478) (1.04009 -0.0305914 -0.00024731)
0.44          (0.919413 -0.00380204 0.000388136) (1.03666 0.032643 -0.00042155) (1.04238 -0.0296797 0.000186015)
0.45          (0.920458 -0.00117377 0.000237674) (1.03358 0.0341988 -3.85279e-05) (1.043 -0.0304948 -0.000286851)
0.46          (0.91942 -0.00382969 0.00052229) (1.03653 0.0321665 0.000353844) (1.04173 -0.0301541 -0.000284382)
0.47          (0.920454 -0.000934737 0.000509536) (1.03478 0.0320596 0.00042313) (1.04333 -0.029139 -0.000197825)
0.48          (0.921593 -0.00631466 0.000559235) (1.03839 0.0308931 -1.36712e-05) (1.038 -0.0315969 -0.000174122)
0.49          (0.919892 -0.00751961 0.000691143) (1.04013 0.0304573 0.000118159) (1.03799 -0.0311996 -0.000222538)
0.5           (0.919173 -0.00972333 0.000579436) (1.04261 0.0299301 0.000162484) (1.03661 -0.0314305 -0.000224338)
0.51          (0.922228 -0.00961692 0.000581745) (1.04006 0.031626 0.000105252) (1.03467 -0.0331759 -5.57752e-05)
0.52          (0.922331 -0.00907236 0.00076955) (1.03848 0.0325381 0.000267377) (1.03599 -0.0324437 -0.000309382)
0.53          (0.921257 -0.00889412 0.00084927) (1.04003 0.0308758 0.000502984) (1.0362 -0.0321092 -0.000821603)
0.54          (0.920324 -0.00312767 0.000821326) (1.03691 0.0311941 6.00808e-05) (1.04045 -0.0308296 -0.00136687)
0.55          (0.922138 -0.00543266 0.000430601) (1.03527 0.0331159 -8.59725e-05) (1.03835 -0.0323629 -0.000837427)
0.56          (0.922213 -0.00615604 0.000463942) (1.03594 0.0324715 -0.000394733) (1.03802 -0.0324266 -0.000858631)
0.57          (0.922564 -0.0055328 0.000476565) (1.03486 0.0330432 0.000113207) (1.0385 -0.0321721 -0.00145143)
0.58          (0.923594 -0.00879435 0.000651858) (1.0358 0.0342123 -0.000136724) (1.03531 -0.0335869 -0.00146483)
0.59          (0.924656 -0.00138931 0.000592283) (1.02837 0.0374454 -0.000428038) (1.04103 -0.0323823 -0.000741185)
0.6           (0.923812 -0.00168499 0.000498333) (1.02842 0.0374822 -0.00020388) (1.0428 -0.0304014 -0.00129926)
0.61          (0.92427 -0.00587507 0.000614432) (1.03327 0.0352048 0.000236549) (1.03766 -0.0328411 -0.00131918)
0.62          (0.92639 -0.00668331 0.000569279) (1.03056 0.0376857 0.000233781) (1.03749 -0.0321098 -0.00137239)
0.63          (0.926636 -0.00291589 0.000735181) (1.02767 0.0380712 0.000325599) (1.03965 -0.0325109 -0.00135441)
0.64          (0.928701 -0.00282362 0.000684709) (1.02653 0.0375366 0.000181314) (1.03877 -0.0332468 -0.00147832)
0.65          (0.92653 -0.00183778 0.000543425) (1.02736 0.0363416 0.000355253) (1.04123 -0.0321113 -0.00155342)
0.66          (0.924829 -0.00406951 0.000681793) (1.03068 0.034387 0.000288564) (1.04005 -0.0326383 -0.00171287)
0.67          (0.923877 -0.00824471 0.000917418) (1.03533 0.0314691 0.000297693) (1.03765 -0.0332107 -0.00186819)
0.68          (0.923061 -0.0101279 0.000688646) (1.03836 0.0288915 0.00019464) (1.03645 -0.0339567 -0.00224885)
0.69          (0.924779 -0.0103332 0.000708158) (1.03471 0.032461 0.000235321) (1.03769 -0.0327581 -0.0022723)
0.7           (0.925079 -0.0102899 0.00075956) (1.03396 0.0327417 0.000178398) (1.03823 -0.0330214 -0.0022927)
0.71          (0.927435 -0.006485 0.00079733) (1.0292 0.0350802 0.000522187) (1.03901 -0.034511 -0.00231069)
0.72          (0.927886 -0.00311944 0.000980086) (1.02572 0.0361732 0.00034083) (1.04263 -0.033232 -0.00222193)
0.73          (0.927588 -0.00602062 0.00125634) (1.02786 0.0349825 0.000555705) (1.04261 -0.0322817 -0.00239708)
0.74          (0.926917 -0.00978188 0.000867351) (1.03136 0.0333192 0.000134294) (1.04037 -0.0335038 -0.00258552)
0.75          (0.926177 -0.0104953 0.000960094) (1.03214 0.0327162 0.000181703) (1.04119 -0.0331365 -0.00313122)
0.76          (0.926389 -0.00857981 0.00122552) (1.03003 0.0329198 3.66166e-06) (1.04366 -0.0321905 -0.00310372)
0.77          (0.927555 -0.00915456 0.00123512) (1.0281 0.0339571 -0.000149208) (1.04457 -0.0319656 -0.00228814)
0.78          (0.92771 -0.00819928 0.00143314) (1.02578 0.034703 -0.000532029) (1.04791 -0.0303066 -0.00202397)
0.79          (0.930468 -0.0060917 0.00163144) (1.02143 0.0370711 -0.000570155) (1.04855 -0.0313797 -0.00250523)
0.8           (0.932011 -0.00557265 0.00173353) (1.0207 0.0369664 -0.000210612) (1.04894 -0.0319386 -0.00237589)
0.81          (0.92835 -0.00845099 0.0017104) (1.02564 0.0340353 -0.000740795) (1.04907 -0.0319166 -0.0026982)
0.82          (0.929152 -0.0140315 0.00180325) (1.02827 0.0338488 -0.000695986) (1.04619 -0.0331473 -0.00269671)
0.83          (0.928403 -0.0127559 0.0021979) (1.02711 0.0342737 -0.000899391) (1.05048 -0.0307343 -0.00311671)
0.84          (0.928798 -0.0121346 0.00238402) (1.02592 0.034881 -0.00149156) (1.05222 -0.0304629 -0.00319487)
0.85          (0.931343 -0.0139389 0.00242927) (1.02484 0.0356407 -0.00187955) (1.05039 -0.0330183 -0.00339504)
0.86          (0.931913 -0.0116426 0.0027127) (1.02156 0.0367175 -0.00196805) (1.05412 -0.0316427 -0.00326359)
0.87          (0.931432 -0.0148358 0.0028865) (1.02302 0.0366987 -0.00239968) (1.05443 -0.0310103 -0.00294874)
0.88          (0.929998 -0.0154377 0.00295153) (1.02566 0.0344959 -0.00258559) (1.0564 -0.0302608 -0.00260569)
0.89          (0.929226 -0.0169234 0.00329157) (1.02778 0.0335242 -0.00343519) (1.05681 -0.030116 -0.00223862)
0.9           (0.930148 -0.0155775 0.00352639) (1.02568 0.0339177 -0.0037735) (1.05969 -0.0296723 -0.00196784)
0.91          (0.932348 -0.018413 0.00366671) (1.0276 0.0325627 -0.0043323) (1.05729 -0.0313695 -0.00165522)
0.92          (0.932345 -0.0170391 0.00378701) (1.02672 0.0324619 -0.00488528) (1.06111 -0.0296735 -0.00151289)
0.93          (0.932222 -0.0190443 0.00386418) (1.0274 0.0324624 -0.00552385) (1.06277 -0.0279638 -0.00139016)
0.94          (0.932555 -0.0188298 0.00414255) (1.02713 0.0331898 -0.006398) (1.06401 -0.0280616 -0.00119035)
0.95          (0.932326 -0.0148125 0.00395358) (1.02235 0.0352581 -0.00745463) (1.07104 -0.0244458 -0.00106356)
0.96          (0.93304 -0.0150654 0.00406925) (1.02248 0.0350924 -0.00798655) (1.07213 -0.024848 -0.00108998)
0.97          (0.932773 -0.0165846 0.00425125) (1.02475 0.0336374 -0.0084647) (1.07353 -0.0237685 3.73547e-05)
0.98          (0.935139 -0.0169893 0.00416248) (1.02492 0.0336661 -0.00947373) (1.07237 -0.0252711 0.0011718)
0.99          (0.934716 -0.0151741 0.00421647) (1.02393 0.0340988 -0.0106553) (1.07592 -0.0236661 0.00116457)
1             (0.936937 -0.013434 0.00430119) (1.02232 0.0350841 -0.011632) (1.07605 -0.0247856 0.00129471)
1.01          (0.936506 -0.0144387 0.00436492) (1.02486 0.034418 -0.0124022) (1.07667 -0.0238472 0.00192713)
1.02          (0.935289 -0.0140594 0.00438262) (1.02626 0.0342387 -0.0132774) (1.07857 -0.0227608 0.00276212)
1.03          (0.934458 -0.0146611 0.00427549) (1.03001 0.0320682 -0.0141841) (1.07828 -0.0226997 0.00278825)
1.04          (0.935643 -0.0151688 0.00396968) (1.03167 0.0312979 -0.0154335) (1.07702 -0.0235978 0.00311665)
1.05          (0.936281 -0.0110669 0.00362153) (1.02856 0.0338646 -0.0164823) (1.07983 -0.0231523 0.00359911)
1.06          (0.935917 -0.0128929 0.00334497) (1.03189 0.0328335 -0.0175242) (1.07933 -0.0216589 0.00438103)
1.07          (0.932562 -0.0168383 0.0032518) (1.03982 0.0286507 -0.0189277) (1.07845 -0.0203775 0.00494485)
1.08          (0.933929 -0.0140237 0.00320183) (1.03799 0.0310615 -0.0197689) (1.07899 -0.0210051 0.00572391)
1.09          (0.933912 -0.0144144 0.00301313) (1.04134 0.0292817 -0.0211067) (1.07768 -0.0213919 0.00623759)
1.1           (0.933894 -0.0110558 0.00242436) (1.03989 0.0308684 -0.0223163) (1.07977 -0.019387 0.00675044)
1.11          (0.933999 -0.00618101 0.00208113) (1.03703 0.0332833 -0.0234953) (1.08248 -0.0184777 0.00731706)
1.12          (0.932704 -0.00581638 0.00179684) (1.03903 0.0337081 -0.0239497) (1.08329 -0.0169348 0.00793939)
1.13          (0.93225 -0.0054638 0.00152791) (1.04132 0.0342691 -0.024662) (1.08196 -0.016616 0.00819671)
1.14          (0.932264 -0.00218917 0.000773964) (1.04308 0.0332197 -0.0257252) (1.08079 -0.0169204 0.00890359)
1.15          (0.930964 0.00122817 0.000230045) (1.04359 0.0335367 -0.0265619) (1.082 -0.0164518 0.00935537)
1.16          (0.930853 0.00173261 -8.61204e-05) (1.04605 0.0342471 -0.0274554) (1.07975 -0.0168982 0.00968403)
1.17          (0.929028 0.0031115 -0.000537435) (1.04723 0.0354421 -0.0284295) (1.07967 -0.0163388 0.0100508)
1.18          (0.92987 0.00674946 -0.00131746) (1.04743 0.0358081 -0.0282695) (1.07967 -0.0153917 0.0100835)
1.19          (0.928317 0.00635735 -0.00146108) (1.05176 0.0351222 -0.028835) (1.0763 -0.016537 0.0111498)
1.2           (0.927504 0.00729866 -0.00199728) (1.05565 0.0344266 -0.0294799) (1.07257 -0.0185011 0.0119636)
1.21          (0.926962 0.0110901 -0.00231653) (1.05583 0.0353336 -0.0297313) (1.07257 -0.0181271 0.0122791)
1.22          (0.925853 0.0154155 -0.00269628) (1.05421 0.0373345 -0.0295424) (1.07482 -0.0161162 0.012011)
1.23          (0.924281 0.0107023 -0.00310665) (1.06296 0.0338749 -0.0297593) (1.06795 -0.0182257 0.0121899)
1.24          (0.925016 0.0140146 -0.00341646) (1.06253 0.0356097 -0.0295653) (1.06766 -0.0175047 0.013026)
1.25          (0.922426 0.0148814 -0.00375055) (1.06608 0.035094 -0.0289123) (1.06592 -0.017546 0.0133647)
1.26          (0.920753 0.0125404 -0.00372174) (1.07272 0.0331625 -0.0285292) (1.06134 -0.0182495 0.0141138)
1.27          (0.921544 0.0119 -0.00375853) (1.07662 0.0325628 -0.0283277) (1.0553 -0.0217796 0.0144411)
1.28          (0.920627 0.0150115 -0.00388448) (1.07638 0.0332201 -0.0277127) (1.05598 -0.0203475 0.0144107)
1.29          (0.919974 0.0192655 -0.00370801) (1.0753 0.0347211 -0.0260547) (1.05701 -0.0195291 0.0147593)
1.3           (0.919799 0.020318 -0.00374448) (1.07628 0.0354633 -0.0254098) (1.05449 -0.0209551 0.0150694)
1.31          (0.919165 0.0224987 -0.00375559) (1.07805 0.035005 -0.0237291) (1.05221 -0.0225094 0.0155025)
1.32          (0.919181 0.022279 -0.00342786) (1.08078 0.035138 -0.0220225) (1.04854 -0.02358 0.015493)
1.33          (0.918124 0.0207941 -0.00299184) (1.08473 0.0340354 -0.0203942) (1.04579 -0.0236012 0.0156247)
1.34          (0.919539 0.0228285 -0.00248035) (1.08409 0.0353789 -0.018593) (1.04324 -0.0255799 0.0164242)
1.35          (0.918884 0.0218011 -0.00174029) (1.08754 0.0337094 -0.0164659) (1.04072 -0.025736 0.0168099)
1.36          (0.91807 0.0198078 -0.00141737) (1.09235 0.0309795 -0.0141024) (1.03677 -0.0272436 0.0162787)
1.37          (0.9186 0.0198962 -0.000821609) (1.0926 0.0314748 -0.0121327) (1.03507 -0.0279107 0.0162926)
1.38          (0.918606 0.0200028 -0.000272665) (1.0924 0.0321893 -0.0102506) (1.03352 -0.028467 0.0165111)
1.39          (0.916774 0.0218384 0.000556783) (1.09222 0.0318624 -0.00749619) (1.03549 -0.0271871 0.0168875)
1.4           (0.915012 0.0247754 0.0013208) (1.09181 0.0312706 -0.00472968) (1.03797 -0.0253535 0.0168481)
1.41          (0.916469 0.0224965 0.00233313) (1.09331 0.0302426 -0.00183114) (1.03362 -0.0265563 0.0161019)
1.42          (0.918027 0.0174969 0.00327509) (1.09506 0.0303129 0.000856506) (1.02857 -0.0285886 0.016153)
1.43          (0.916005 0.0149006 0.00402688) (1.09815 0.028381 0.00358381) (1.02743 -0.0284916 0.0155336)
1.44          (0.916598 0.0154189 0.00500711) (1.09799 0.0271037 0.00665929) (1.02583 -0.0295275 0.0152267)
1.45          (0.917351 0.015676 0.00591499) (1.09729 0.0263536 0.00940422) (1.02459 -0.0303123 0.0150912)
1.46          (0.916777 0.0131428 0.0071926) (1.0974 0.0256794 0.0123722) (1.02487 -0.0286572 0.0150501)
1.47          (0.915288 0.0119381 0.0079141) (1.0972 0.0244071 0.0148104) (1.02562 -0.0271539 0.0141899)
1.48          (0.913101 0.00775543 0.0089485) (1.10156 0.0206206 0.0173174) (1.02337 -0.0269771 0.0142831)
1.49          (0.91612 0.00940859 0.00998727) (1.09571 0.0219145 0.0201967) (1.02498 -0.0256658 0.0139365)
1.5           (0.915345 0.00532842 0.0107663) (1.0982 0.0190138 0.0228832) (1.02226 -0.0263897 0.0131983)
1.51          (0.915917 0.00302665 0.0114581) (1.09732 0.0176315 0.0254888) (1.02128 -0.0262256 0.0126665)
1.52          (0.917702 0.00255403 0.0123718) (1.09552 0.0162761 0.0278694) (1.01943 -0.0272397 0.0118732)
1.53          (0.916399 4.86896e-05 0.013065) (1.0952 0.0142454 0.0302749) (1.02108 -0.0243669 0.0110729)
1.54          (0.915749 -0.00259236 0.0138202) (1.09413 0.0137901 0.032063) (1.02166 -0.0232865 0.0101026)
1.55          (0.915766 -0.00432713 0.0140621) (1.09106 0.0139419 0.0338218) (1.02312 -0.0215845 0.00945659)
1.56          (0.916635 -0.00684016 0.0146895) (1.0896 0.013249 0.0358) (1.02286 -0.0194142 0.00857188)
1.57          (0.91482 -0.00981009 0.0148743) (1.0904 0.0105324 0.0375952) (1.02376 -0.0169027 0.00814858)
1.58          (0.916081 -0.0117081 0.0149019) (1.0873 0.0109151 0.0382008) (1.02262 -0.0173991 0.00658242)
1.59          (0.917414 -0.0117497 0.0151263) (1.0829 0.0113637 0.0392523) (1.02435 -0.0153012 0.0053152)
1.6           (0.915471 -0.015689 0.0149262) (1.08395 0.00891481 0.0403496) (1.02429 -0.0139621 0.00408907)
1.61          (0.913259 -0.0194895 0.0145344) (1.08494 0.00699206 0.0410864) (1.02447 -0.012146 0.00327925)
1.62          (0.915791 -0.0190446 0.0142782) (1.0805 0.00705345 0.041488) (1.02553 -0.0105797 0.00218967)
1.63          (0.917748 -0.0172597 0.0137606) (1.07414 0.00875263 0.0418343) (1.02812 -0.00855792 0.0012172)
1.64          (0.915425 -0.018292 0.0130636) (1.0733 0.00701554 0.0420856) (1.03129 -0.00516421 0.000497647)
1.65          (0.915907 -0.0216004 0.0122402) (1.07317 0.00613162 0.042129) (1.03018 -0.00385485 -0.000786459)
1.66          (0.9168 -0.0225421 0.0111796) (1.07046 0.00640029 0.0410341) (1.02943 -0.00381079 -0.00200489)
1.67          (0.916852 -0.0194961 0.0102363) (1.06607 0.0062958 0.0410052) (1.0327 -0.0021491 -0.00332364)
1.68          (0.91664 -0.0202041 0.00929183) (1.06492 0.00509885 0.0403528) (1.03372 -0.000505982 -0.0043912)
1.69          (0.916031 -0.0199916 0.00798448) (1.06213 0.0048906 0.0386679) (1.03682 0.00243207 -0.00515677)
1.7           (0.916749 -0.0141214 0.00663039) (1.05484 0.00665773 0.0381299) (1.04256 0.00552484 -0.00623375)
1.71          (0.916673 -0.0199932 0.00562505) (1.05757 0.00533267 0.0376818) (1.03843 0.00480616 -0.00739774)
1.72          (0.916031 -0.0236126 0.00418678) (1.05998 0.00372273 0.0362984) (1.03539 0.00496445 -0.00845224)
1.73          (0.917622 -0.0222957 0.00253166) (1.05641 0.00453008 0.0347645) (1.03588 0.00564044 -0.0092179)
1.74          (0.918854 -0.0221008 0.000851776) (1.05243 0.00671521 0.0327356) (1.03656 0.00657144 -0.00966482)
1.75          (0.915702 -0.0195135 -0.00061942) (1.05008 0.0074192 0.0312804) (1.04189 0.00991634 -0.0105145)
1.76          (0.91617 -0.0187417 -0.00242796) (1.04783 0.00889322 0.029935) (1.04031 0.00884569 -0.0115416)
1.77          (0.916992 -0.0182362 -0.00407944) (1.04739 0.00801278 0.0282286) (1.03903 0.00873526 -0.0120394)
1.78          (0.91733 -0.0187204 -0.0053409) (1.0459 0.00895485 0.0258272) (1.03738 0.00769632 -0.0123813)
1.79          (0.919462 -0.0145254 -0.00724739) (1.0406 0.0108828 0.0244074) (1.0388 0.00807165 -0.0127543)
1.8           (0.918576 -0.0120748 -0.00856519) (1.03798 0.0124786 0.0227468) (1.04004 0.00813013 -0.013367)
1.81          (0.91828 -0.0117795 -0.0098171) (1.03645 0.0137349 0.0206871) (1.03946 0.00771094 -0.0136741)
1.82          (0.918909 -0.00895091 -0.0115032) (1.03433 0.0139905 0.0187944) (1.03938 0.00659405 -0.0136899)
1.83          (0.917217 -0.00864259 -0.0126409) (1.03443 0.0141194 0.017014) (1.03889 0.00576077 -0.0135769)
1.84          (0.917308 -0.00647512 -0.013951) (1.03035 0.0171416 0.0150299) (1.03948 0.0054016 -0.0137212)
1.85          (0.917984 -0.00176498 -0.0151575) (1.02616 0.0191364 0.012839) (1.03978 0.00400253 -0.0130954)
1.86          (0.91906 -0.000790277 -0.0160419) (1.02454 0.0196204 0.0111939) (1.03757 0.00178744 -0.0133805)
1.87          (0.918357 0.00333977 -0.0169478) (1.02014 0.0216215 0.00987835) (1.03994 0.00148045 -0.0131605)
1.88          (0.918747 0.00283047 -0.0177522) (1.02025 0.0220196 0.0078675) (1.03701 -0.000655345 -0.0123835)
1.89          (0.918003 0.00329939 -0.0187813) (1.01999 0.0228709 0.0064989) (1.03508 -0.00312859 -0.0117105)
1.9           (0.917781 0.00313474 -0.0194012) (1.02025 0.02366 0.00457771) (1.03076 -0.0080267 -0.0114838)
1.91          (0.917263 0.00823175 -0.0198064) (1.015 0.0261984 0.00300428) (1.03429 -0.00740693 -0.0103775)
1.92          (0.917563 0.00696022 -0.0202587) (1.0152 0.0268868 0.00190724) (1.03114 -0.010001 -0.0101824)
1.93          (0.916645 0.0057366 -0.020804) (1.01548 0.0274299 0.000487329) (1.02783 -0.0133029 -0.00939106)
1.94          (0.914825 0.0108267 -0.0210204) (1.0113 0.0286791 -0.000918715) (1.03268 -0.0121504 -0.00798986)
1.95          (0.917443 0.0104659 -0.0212726) (1.00883 0.0308973 -0.00225482) (1.02822 -0.0165711 -0.00669657)
1.96          (0.917075 0.0107846 -0.0214136) (1.00768 0.0316097 -0.00286526) (1.02721 -0.0189474 -0.00610679)
1.97          (0.917031 0.0177126 -0.0214292) (1.00025 0.0355329 -0.00468683) (1.03053 -0.0201369 -0.00556055)
1.98          (0.917311 0.0125163 -0.0211254) (1.00055 0.037737 -0.00475828) (1.025 -0.0255002 -0.00444746)
1.99          (0.917813 0.00817959 -0.0212642) (1.00298 0.0369614 -0.00584584) (1.01887 -0.0307075 -0.00342462)
2             (0.917889 0.0094602 -0.0213477) (1.00049 0.0384566 -0.00669727) (1.01859 -0.0331649 -0.0027337)
2.01          (0.916359 0.00848172 -0.0210621) (1.00116 0.038233 -0.00712743) (1.01861 -0.0342891 -0.00156892)
2.02          (0.914019 0.0148677 -0.0206509) (0.995413 0.039755 -0.0075735) (1.02581 -0.0325859 -0.000593789)
2.03          (0.914609 0.0102479 -0.0205771) (0.997208 0.0396477 -0.00797644) (1.02083 -0.0364514 0.000326349)
2.04          (0.912126 0.0076122 -0.0205872) (0.998955 0.0381421 -0.00790574) (1.02038 -0.0385181 0.00141319)
2.05          (0.912433 0.00849929 -0.020508) (0.996121 0.0396093 -0.00886422) (1.02129 -0.040343 0.00229131)
2.06          (0.916317 0.00822862 -0.0200998) (0.992067 0.0416376 -0.00899372) (1.01877 -0.0440885 0.00319056)
2.07          (0.914511 0.0045785 -0.0196889) (0.996734 0.0384788 -0.00922791) (1.01602 -0.0470272 0.00380583)
2.08          (0.914723 0.000449673 -0.0194185) (0.99821 0.0379181 -0.00979919) (1.01281 -0.0501087 0.00435115)
2.09          (0.914168 -0.0012062 -0.0192787) (0.997794 0.0376833 -0.00969617) (1.01386 -0.0510097 0.00481275)
2.1           (0.915548 -0.00161465 -0.0190371) (0.996055 0.0382667 -0.00929942) (1.01366 -0.0530062 0.0051298)
2.11          (0.916719 0.000755812 -0.0185816) (0.991329 0.0395407 -0.010023) (1.01689 -0.0538436 0.00574438)
2.12          (0.916667 -0.000774168 -0.0184836) (0.991846 0.0388675 -0.00965426) (1.01688 -0.0555417 0.00668024)
2.13          (0.916513 -0.00153595 -0.0182472) (0.990609 0.0392209 -0.0093656) (1.01959 -0.0550428 0.00734627)
2.14          (0.917003 -0.0040794 -0.0175858) (0.991229 0.0383522 -0.00937088) (1.01984 -0.0555787 0.00806021)
2.15          (0.918201 -0.00152139 -0.0168244) (0.987562 0.0396552 -0.00962468) (1.02319 -0.0559571 0.00773876)
2.16          (0.919723 -0.00241148 -0.0163318) (0.986997 0.039422 -0.00871936) (1.02373 -0.0572674 0.00797358)
2.17          (0.920969 -0.00772483 -0.0157698) (0.990288 0.037109 -0.00854246) (1.02208 -0.058057 0.00803147)
2.18          (0.921936 -0.0115208 -0.0153141) (0.993789 0.034497 -0.0087275) (1.02059 -0.0589319 0.0085375)
2.19          (0.920726 -0.0130274 -0.0147134) (0.997563 0.0306868 -0.00828304) (1.02284 -0.0572185 0.00907643)
2.2           (0.921187 -0.0152829 -0.0136028) (0.998759 0.0292161 -0.00823255) (1.02427 -0.0569113 0.00916007)
2.21          (0.924671 -0.0171861 -0.0126222) (0.998292 0.0286142 -0.00844695) (1.02433 -0.0573248 0.00909449)
2.22          (0.929236 -0.0145763 -0.0116301) (0.994339 0.0298597 -0.00861738) (1.02553 -0.0580861 0.00924724)
2.23          (0.928257 -0.0180578 -0.0103755) (0.999387 0.0272111 -0.00793134) (1.02563 -0.057491 0.00893807)
2.24          (0.932327 -0.0160546 -0.00927401) (0.996833 0.0274559 -0.00852858) (1.02808 -0.0568528 0.00921656)
2.25          (0.93521 -0.0164838 -0.00784364) (0.99698 0.026447 -0.00860574) (1.02917 -0.055948 0.00909683)
2.26          (0.939599 -0.0164829 -0.00645227) (0.995437 0.0273408 -0.0082409) (1.02893 -0.0563697 0.00898256)
2.27          (0.94067 -0.0199296 -0.0050271) (0.998806 0.0258714 -0.00794494) (1.02989 -0.0551105 0.00893443)
2.28          (0.942235 -0.0192778 -0.00362054) (1.00022 0.0239841 -0.00828792) (1.03103 -0.0551418 0.00896654)
2.29          (0.943553 -0.0183311 -0.0021206) (1.00253 0.0215539 -0.00802956) (1.0326 -0.0535571 0.00861111)
2.3           (0.945765 -0.0163753 -0.000565354) (1.00213 0.0210803 -0.00832509) (1.03608 -0.051009 0.00861522)
2.31          (0.948475 -0.0158527 0.00132245) (1.00164 0.0212065 -0.00950638) (1.0381 -0.0495632 0.00928261)
2.32          (0.952099 -0.0142717 0.00302071) (1.0017 0.0209521 -0.0095288) (1.03846 -0.0493334 0.00979185)
2.33          (0.953249 -0.0136214 0.00477834) (1.00115 0.0224021 -0.0100991) (1.04103 -0.0474132 0.0103211)
2.34          (0.955673 -0.0111625 0.00661974) (0.999266 0.0231364 -0.00992921) (1.04451 -0.045273 0.0106561)
2.35          (0.957313 -0.0112452 0.0082705) (1.00115 0.0226428 -0.0102844) (1.04494 -0.0444468 0.0107157)
2.36          (0.95868 -0.00925796 0.00977282) (1.00319 0.0207191 -0.0109166) (1.04662 -0.0434 0.0109)
2.37          (0.958469 -0.00829771 0.0113773) (1.00468 0.0199859 -0.0118998) (1.04922 -0.0416782 0.0115817)
2.38          (0.961001 -0.00621691 0.0130497) (1.00387 0.0210151 -0.0125199) (1.05059 -0.0405603 0.0127281)
2.39          (0.963507 -0.00727596 0.014613) (1.00497 0.0215117 -0.0127477) (1.05067 -0.0395082 0.0133781)
2.4           (0.963209 -0.00549411 0.0160891) (1.00374 0.0243762 -0.0131358) (1.05439 -0.0372697 0.0135006)
2.41          (0.963748 -0.00422851 0.0179128) (1.00419 0.0252367 -0.0137102) (1.05648 -0.0363927 0.0142581)
2.42          (0.96555 -0.00609657 0.019313) (1.00505 0.0274052 -0.0144577) (1.0554 -0.0371374 0.0154071)
2.43          (0.965036 -0.00491118 0.0202796) (1.00662 0.0270854 -0.0149164) (1.05776 -0.0352723 0.0166219)
2.44          (0.966653 -0.00213828 0.0217215) (1.0047 0.0297397 -0.0158537) (1.06072 -0.0338808 0.0177436)
2.45          (0.965171 -8.69577e-05 0.0230248) (1.00671 0.0295534 -0.0161344) (1.06425 -0.0319157 0.0187549)
2.46          (0.964652 -0.00239617 0.023893) (1.00976 0.0307397 -0.0163648) (1.06275 -0.0336305 0.0196416)
2.47          (0.962815 -0.00265278 0.0245192) (1.01187 0.0312415 -0.0170171) (1.06561 -0.0312696 0.0205991)
2.48          (0.961793 -0.000891128 0.0251198) (1.01238 0.0329819 -0.0171431) (1.0684 -0.0313579 0.0214332)
2.49          (0.961053 -0.00317958 0.0257827) (1.01684 0.0332676 -0.0178237) (1.06661 -0.0324814 0.0228965)
2.5           (0.961658 -0.00479087 0.026523) (1.01788 0.0363933 -0.0186391) (1.0663 -0.0323378 0.024555)
2.51          (0.957227 -0.00276843 0.0265965) (1.01943 0.0374424 -0.0189474) (1.07259 -0.0293936 0.0255649)
2.52          (0.95711 -0.00397106 0.0266039) (1.02098 0.0394175 -0.0192144) (1.07214 -0.0305168 0.0264697)
2.53          (0.956726 -0.00335742 0.0264401) (1.02152 0.0423813 -0.0201279) (1.07332 -0.0309695 0.028076)
2.54          (0.953857 -0.00435473 0.0261363) (1.02449 0.044314 -0.0201986) (1.07514 -0.0309511 0.0294871)
2.55          (0.951512 -0.00576863 0.0258157) (1.0275 0.0458263 -0.0204081) (1.07719 -0.029474 0.0304001)
2.56          (0.950907 -0.00428002 0.0254213) (1.02755 0.0482905 -0.0209388) (1.07964 -0.029507 0.031545)
2.57          (0.947858 -0.0050712 0.024904) (1.02944 0.0503928 -0.0214009) (1.0832 -0.0280053 0.033012)
2.58          (0.949164 -0.00401252 0.0240941) (1.02826 0.0538768 -0.0215539) (1.08286 -0.0301109 0.0339918)
2.59          (0.947866 -0.00277718 0.0231514) (1.02912 0.0566035 -0.0214374) (1.08505 -0.0294325 0.0350573)
2.6           (0.943046 -0.00210624 0.0222381) (1.03254 0.057187 -0.0208182) (1.09023 -0.0267374 0.0358965)
2.61          (0.941071 0.0002447 0.0209724) (1.03201 0.0607601 -0.021113) (1.09352 -0.0267305 0.03702)
2.62          (0.939122 -0.000775649 0.0195294) (1.03337 0.063116 -0.021606) (1.09537 -0.0259175 0.0375237)
2.63          (0.937227 -0.00251746 0.0180882) (1.03731 0.0636435 -0.0213565) (1.09664 -0.0244334 0.0384174)
2.64          (0.936524 -0.00306992 0.0167138) (1.03898 0.0656219 -0.0205501) (1.09654 -0.0248746 0.0387203)
2.65          (0.933394 -0.00302797 0.0150623) (1.04175 0.0662061 -0.0198593) (1.09887 -0.0232484 0.0396783)
2.66          (0.932842 -0.00291432 0.0133353) (1.04369 0.0672691 -0.0200556) (1.09892 -0.0237154 0.0398603)
2.67          (0.932072 -0.00309842 0.0115177) (1.04569 0.0681967 -0.0197597) (1.09859 -0.0236685 0.0397729)
2.68          (0.928993 -0.00311342 0.00989556) (1.04779 0.0691242 -0.0192635) (1.10109 -0.0221061 0.0396882)
2.69          (0.929005 -0.0024667 0.00794632) (1.04857 0.0710751 -0.0180227) (1.10099 -0.0214475 0.0399515)
2.7           (0.929777 -0.000355841 0.00598829) (1.04764 0.0724804 -0.0175534) (1.10041 -0.0223643 0.0398923)