# Probe 0 (-1.5 0 0)
# Probe 1 (-1.5 2 0)
# Probe 2 (-1.5 -2 0)
# Time        0             1             2            
0.01          (0.916291 -0.00626576 -4.6551e-05) (1.04361 0.025718 -0.000589515) (1.03907 -0.0275415 -0.000305756)
0.02          (0.879771 -0.00935801 -0.000133109) (1.06199 0.0384363 -0.000584656) (1.05665 -0.0394129 -0.000331541)
0.03          (0.88607 -0.00849905 -0.000175472) (1.05991 0.0331874 -0.000115893) (1.05329 -0.0336947 -0.000148435)
0.04          (0.892066 -0.00576135 -0.000315039) (1.05669 0.028979 4.95901e-05) (1.0511 -0.0291607 0.0001781)
0.05          (0.898142 -0.00584668 3.5148e-05) (1.05433 0.0283399 -0.000150493) (1.05051 -0.0283801 0.000150893)
0.06          (0.903536 -0.00822404 -0.000291193) (1.05434 0.0275963 -0.000394649) (1.04683 -0.0296338 -0.000180123)
0.07          (0.903525 -0.00559863 -0.000312859) (1.05227 0.027245 -0.000367895) (1.04814 -0.0292565 -0.000560878)
0.08          (0.90458 -0.00379641 -3.59086e-05) (1.04977 0.0286053 -0.000422748) (1.0482 -0.0293714 -0.00023228)
0.09          (0.90539 -0.00273155 -4.15616e-05) (1.04811 0.0291629 -0.000274037) (1.04941 -0.0286677 0.000170763)
0.1           (0.907783 -0.00308293 -6.45285e-05) (1.04787 0.0283082 -0.000110694) (1.04839 -0.0282998 0.000207433)
0.11          (0.908904 -0.00546966 -8.99474e-05) (1.04845 0.0288203 0.000243309) (1.04587 -0.0286348 8.43902e-06)
0.12          (0.909664 -0.00628871 -9.47149e-05) (1.04943 0.0279443 0.000222196) (1.04456 -0.0292786 0.000481035)
0.13          (0.911283 -0.00640842 -0.000175477) (1.04768 0.0293557 6.78418e-05) (1.04348 -0.0302548 0.000191476)
0.14          (0.910371 -0.00894634 -0.000191356) (1.05014 0.0281191 -5.19797e-05) (1.04243 -0.0295842 5.26916e-05)
0.15          (0.910938 -0.00848643 -0.000112788) (1.04966 0.0275591 -0.00020005) (1.04194 -0.0304817 9.83167e-05)
0.16          (0.91092 -0.00444631 -0.000134135) (1.0478 0.0266467 0.000385176) (1.0445 -0.0293728 -0.000491635)
0.17          (0.913 -0.00594208 4.842e-05) (1.04715 0.027307 0.000139151) (1.04181 -0.0305928 -0.000252835)
0.18          (0.913874 -0.00638498 9.83002e-05) (1.04699 0.0285199 0.000174704) (1.04067 -0.0308622 -0.000169449)
0.19          (0.911894 -0.00536348 -0.000242894) (1.04668 0.0281768 6.83607e-05) (1.0443 -0.0282171 3.4201e-05)
0.2           (0.912818 -0.00484235 -0.000169076) (1.04539 0.0283909 -0.000122962) (1.04425 -0.028504 5.40574e-05)
0.21          (0.913464 -0.00312657 -0.000128629) (1.04403 0.0290558 1.89828e-05) (1.04486 -0.0282009 4.83616e-05)
0.22          (0.913484 -0.00442824 -0.000245794) (1.04344 0.0305644 -0.000110584) (1.04434 -0.0281044 -0.000630851)
0.23          (0.913388 -0.00570465 -0.000139435) (1.04475 0.0296053 -0.000243319) (1.0433 -0.0283396 -0.000635229)
0.24          (0.913966 -0.0064603 -7.49935e-05) (1.04607 0.0284762 -0.000325641) (1.04128 -0.0299432 3.68413e-05)
0.25          (0.914808 -0.00656848 -2.2211e-05) (1.04528 0.0291426 -0.000103285) (1.04029 -0.0307097 -0.000235383)
0.26          (0.913931 -0.00825032 -0.000458045) (1.04727 0.0279911 0.000102424) (1.03995 -0.0308927 0.000287329)
0.27          (0.915087 -0.00613567 2.54001e-05) (1.04598 0.0286196 0.000417427) (1.03934 -0.0321629 0.000289038)
0.28          (0.916836 -0.000955536 0.000505869) (1.04048 0.0302499 0.000411178) (1.04358 -0.0299698 0.000428538)
0.29          (0.915811 -0.00357431 0.000210328) (1.04301 0.0298889 0.000205565) (1.04098 -0.0317892 6.85291e-05)
0.3           (0.916341 -0.00581275 -6.2792e-05) (1.04453 0.0289086 -2.92818e-05) (1.03971 -0.0307954 0.000159211)
0.31          (0.915988 -0.00694473 -0.000106857) (1.04475 0.0294224 -0.000103996) (1.03968 -0.0304795 -0.000411427)
0.32          (0.918406 -0.00954569 6.39119e-05) (1.04655 0.0288365 -0.000178425) (1.03448 -0.033846 0.000181712)
0.33          (0.917086 -0.00321622 -3.51241e-05) (1.04123 0.0312815 -0.000208843) (1.04135 -0.0303236 -0.00029695)
0.34          (0.91752 -0.00240063 5.43163e-05) (1.03901 0.0321839 -0.000136739) (1.04365 -0.028858 -6.85875e-05)
0.35          (0.918448 -0.00612164 6.59366e-05) (1.04316 0.0296033 -0.000313062) (1.03872 -0.0313576 -0.000400573)
0.36          (0.917834 -0.00272602 0.000120367) (1.03999 0.0314183 -0.000284525) (1.0419 -0.0300485 -0.000629524)
0.37          (0.919834 -0.00283399 5.74919e-06) (1.03764 0.0333016 6.00537e-05) (1.04088 -0.0311328 0.000157173)
0.38          (0.920382 -0.00497279 -7.4301e-05) (1.03856 0.0331411 -0.000174243) (1.03993 -0.0303931 -4.14597e-05)
0.39          (0.919993 -0.00158842 -1.4723e-05) (1.03636 0.0334774 -8.07163e-05) (1.04245 -0.0300205 0.000788779)
0.4           (0.920037 -0.00260645 -7.12933e-05) (1.03674 0.0335484 -0.00011042) (1.04181 -0.0299681 0.000645617)
0.41          (0.920512 -0.00170889 -0.000200427) (1.03761 0.0322473 -0.000297588) (1.04124 -0.0302369 -0.000120536)
0.42          (0.921426 -0.00445327 -2.73795e-05) (1.03835 0.032785 -0.000382212) (1.039 -0.0309298 8.79301e-05)
0.43          (0.921129 -0.00670119 0.000373452) (1.04015 0.0324202 -0.000512779) (1.03713 -0.0321184 0.000489012)
0.44          (0.922171 -0.00541904 9.41788e-05) (1.03848 0.033501 -0.000750544) (1.03668 -0.0329851 0.000402635)
0.45          (0.922262 -0.00609794 -0.000142627) (1.03758 0.0345045 -0.000661503) (1.03643 -0.0329071 0.000458779)
0.46          (0.921952 -0.00479258 -0.000310247) (1.03781 0.0334662 -0.000685065) (1.03762 -0.0320695 0.000686394)
0.47          (0.920498 -0.00688939 -0.00016199) (1.0414 0.0310391 -0.000610923) (1.03646 -0.0324 0.000258373)
0.48          (0.921463 -0.00462499 8.26295e-05) (1.03958 0.0315295 -0.000707049) (1.0367 -0.0328412 0.000256753)
0.49          (0.92037 0.000231873 5.11746e-06) (1.03633 0.0321727 -0.000807646) (1.04247 -0.029464 0.000232987)
0.5           (0.920881 -0.00123378 -0.000205288) (1.03726 0.0319605 -0.000546627) (1.04104 -0.030225 0.000365613)
0.51          (0.921312 -0.00386602 5.88079e-05) (1.03893 0.0317705 -0.000602324) (1.03846 -0.0307436 0.000521098)
0.52          (0.922256 -0.00423965 -3.23246e-06) (1.03724 0.0333927 -0.000638179) (1.03823 -0.0308636 0.000199681)
0.53          (0.92484 -0.00624086 -4.10176e-05) (1.03757 0.0340679 -0.00100189) (1.03344 -0.0345272 0.000289831)
0.54          (0.922796 -0.00599831 -0.000546673) (1.04038 0.0319796 -0.000906456) (1.03416 -0.0338757 6.77368e-05)
0.55          (0.921481 -0.00291498 -0.000577082) (1.03811 0.0322263 -0.0010762) (1.03854 -0.0313233 0.000706667)
0.56          (0.922239 -0.00140015 -0.000786195) (1.03589 0.0329326 -0.00113587) (1.04003 -0.0305698 0.00124402)
0.57          (0.923478 0.00140907 -0.00051285) (1.03198 0.0348595 -0.00114748) (1.04179 -0.0303332 0.0012553)
0.58          (0.926095 -0.000463025 -0.000499601) (1.03242 0.0350617 -0.00125797) (1.0373 -0.0332899 0.000836585)
0.59          (0.925456 -0.000853681 -0.000318807) (1.03376 0.0352181 -0.00109909) (1.03571 -0.0344643 0.00081229)
0.6           (0.92361 -0.00382837 -0.000340154) (1.03638 0.0343447 -0.00106798) (1.03595 -0.0327308 0.000799928)
0.61          (0.923732 -0.00555811 -0.000449788) (1.03808 0.0336673 -0.00117686) (1.03416 -0.0334887 0.00103264)
0.62          (0.926681 0.0022034 -0.000821561) (1.02817 0.0390277 -0.00113899) (1.03857 -0.0332922 0.00162554)
0.63          (0.924477 0.00128833 -0.000946602) (1.03022 0.0374952 -0.00189191) (1.03933 -0.0317768 0.00118184)
0.64          (0.924835 -0.00227736 -0.00121213) (1.03396 0.0351215 -0.00175986) (1.03541 -0.0330305 0.00102043)
0.65          (0.926227 -0.00346999 -0.00120314) (1.03421 0.0342389 -0.00169746) (1.03483 -0.0325431 0.00118611)
0.66          (0.92675 -0.00642692 -0.00129124) (1.03553 0.0342964 -0.00212456) (1.03165 -0.03408 0.000766394)
0.67          (0.928467 -0.00496775 -0.00144279) (1.03316 0.0353812 -0.00211885) (1.03058 -0.0349953 0.000860882)
0.68          (0.92591 -0.00184506 -0.00181479) (1.03383 0.0332165 -0.00183428) (1.03451 -0.0326716 0.000502396)
0.69          (0.925412 -0.00119056 -0.00169856) (1.03294 0.0339109 -0.00227294) (1.03474 -0.0335535 0.00172803)
0.7           (0.927382 -0.000659963 -0.00181596) (1.03057 0.0350839 -0.00215535) (1.03367 -0.0342032 0.00190984)
0.71          (0.928484 -0.00214347 -0.00206396) (1.03087 0.035069 -0.00209152) (1.03166 -0.034902 0.00138078)
0.72          (0.927946 -0.000427218 -0.00252723) (1.02832 0.0358672 -0.00218654) (1.03423 -0.0328972 0.00122091)
0.73          (0.927992 0.000658657 -0.00292388) (1.02632 0.0372728 -0.00243196) (1.03472 -0.0327389 0.00131907)
0.74          (0.927501 -0.000706587 -0.00292558) (1.02941 0.034853 -0.00254544) (1.03285 -0.0327574 0.00152398)
0.75          (0.928561 -0.00202691 -0.00312439) (1.02907 0.0350991 -0.00279303) (1.03045 -0.034206 0.00151896)
0.76          (0.929232 -0.00251977 -0.00342357) (1.02941 0.034083 -0.00286664) (1.02854 -0.0350448 0.00191353)
0.77          (0.930534 -0.00274616 -0.00360222) (1.02719 0.0349947 -0.00265489) (1.0284 -0.0343074 0.00166219)
0.78          (0.93004 -0.00278807 -0.00375147) (1.02708 0.0350326 -0.00266646) (1.02846 -0.0337484 0.00182195)
0.79          (0.929005 0.00065883 -0.00402354) (1.02471 0.0356161 -0.00277291) (1.03167 -0.0322288 0.00213031)
0.8           (0.930843 0.00310181 -0.00461408) (1.02081 0.0369404 -0.00300862) (1.03246 -0.0321962 0.00249889)
0.81          (0.929095 -0.00279386 -0.00464463) (1.02715 0.0341961 -0.00318391) (1.02655 -0.0343953 0.00225988)
0.82          (0.928964 -0.000546624 -0.00482797) (1.02484 0.0342118 -0.00341925) (1.02837 -0.0329885 0.00262547)
0.83          (0.928579 -7.76326e-05 -0.00481369) (1.02268 0.0349913 -0.00330036) (1.03033 -0.0312456 0.00267114)
0.84          (0.929935 0.000748503 -0.00514763) (1.02061 0.0361742 -0.00332363) (1.0287 -0.0324392 0.0020283)
0.85          (0.929184 -0.00184696 -0.00512007) (1.02391 0.0333697 -0.00334113) (1.0259 -0.0329664 0.00153653)
0.86          (0.928621 -0.00361136 -0.00512617) (1.02525 0.0328473 -0.00347262) (1.024 -0.0329264 0.00189408)
0.87          (0.928001 -0.00440053 -0.00524613) (1.02576 0.0318899 -0.00329409) (1.02248 -0.0334013 0.00259047)
0.88          (0.928477 0.00210228 -0.00511495) (1.01835 0.0347426 -0.00355868) (1.0279 -0.0313162 0.00245495)
0.89          (0.927294 -3.90835e-05 -0.00480371) (1.02056 0.0325335 -0.00320671) (1.02665 -0.0308813 0.00263185)
0.9           (0.926113 -0.00267766 -0.00474727) (1.02223 0.0323719 -0.00332116) (1.02422 -0.0312348 0.00308904)
0.91          (0.927516 0.00135286 -0.00488731) (1.01695 0.0341782 -0.00340325) (1.02657 -0.0300292 0.00339094)
0.92          (0.926617 0.00264183 -0.00465614) (1.01638 0.0332699 -0.00341686) (1.02764 -0.0286291 0.00277502)
0.93          (0.92619 0.00324007 -0.00484581) (1.01546 0.0335015 -0.00345925) (1.02684 -0.0290154 0.00282544)
0.94          (0.925144 0.0015633 -0.00420923) (1.01804 0.0315055 -0.00333868) (1.02445 -0.0298471 0.00269941)
0.95          (0.925535 0.0031903 -0.00408915) (1.01556 0.0328756 -0.00330877) (1.0246 -0.0300048 0.00341751)
0.96          (0.925714 0.00312703 -0.00378714) (1.01595 0.0309504 -0.00319426) (1.02428 -0.0293433 0.0033449)
0.97          (0.926954 0.00623794 -0.0029581) (1.01065 0.0339029 -0.00299405) (1.02595 -0.0287688 0.00335878)
0.98          (0.928689 0.00392727 -0.00240061) (1.00871 0.0362365 -0.00331306) (1.0235 -0.029843 0.00301158)
0.99          (0.927888 0.00699792 -0.00206927) (1.00783 0.0350682 -0.00346197) (1.0246 -0.0293813 0.00246915)
1             (0.927694 0.010397 -0.00145767) (1.0041 0.0365796 -0.00350201) (1.02763 -0.0274097 0.00274662)
1.01          (0.926503 0.0127123 -0.000328388) (1.00297 0.0368506 -0.00324292) (1.02875 -0.027262 0.00285043)
1.02          (0.927125 0.0123453 0.000217375) (1.00197 0.0371468 -0.003213) (1.02853 -0.026657 0.00286614)
1.03          (0.926962 0.0124664 0.00074429) (1.00311 0.0360477 -0.00303061) (1.02819 -0.0260966 0.00270174)
1.04          (0.926606 0.0140814 0.00150455) (1.00286 0.0357867 -0.00295675) (1.02704 -0.0284564 0.00310094)
1.05          (0.92593 0.0154899 0.00209541) (1.00239 0.0345019 -0.00291054) (1.02949 -0.0263092 0.00328887)
1.06          (0.925969 0.0131953 0.00286807) (1.00368 0.0332347 -0.00272039) (1.02845 -0.0252992 0.00258205)
1.07          (0.926768 0.00994064 0.0036927) (1.00762 0.0319647 -0.00264263) (1.02291 -0.0285398 0.00278895)
1.08          (0.927847 0.0125254 0.00447006) (1.00438 0.034096 -0.00218792) (1.02469 -0.0280587 0.0037648)
1.09          (0.927411 0.0111257 0.00513766) (1.00666 0.0330281 -0.00209139) (1.02186 -0.0301298 0.0036947)
1.1           (0.928016 0.0122154 0.00597328) (1.00378 0.0355984 -0.00224749) (1.02416 -0.0284008 0.0033754)
1.11          (0.929243 0.0163923 0.00674289) (1.00031 0.0366519 -0.00185979) (1.02664 -0.028564 0.00359361)
1.12          (0.929509 0.0179484 0.00703198) (0.999662 0.0372373 -0.00159739) (1.02768 -0.0284355 0.00413361)
1.13          (0.927892 0.0204375 0.00762424) (1.00152 0.0344378 -0.0011848) (1.03054 -0.0264441 0.00481824)
1.14          (0.92825 0.0160882 0.00822658) (1.007 0.0320092 -0.00113649) (1.02613 -0.0286711 0.00497719)
1.15          (0.93228 0.019796 0.00857765) (0.999918 0.0373534 -0.000621084) (1.02791 -0.0282156 0.00478216)
1.16          (0.933223 0.0219043 0.0090702) (0.996587 0.0400022 -0.000326469) (1.03081 -0.0268754 0.00553938)
1.17          (0.932497 0.0185941 0.00898325) (1.00155 0.0374199 0.000139065) (1.02851 -0.0281144 0.00591692)
1.18          (0.934188 0.0239994 0.00912868) (0.998145 0.0376327 0.000887466) (1.03234 -0.0273397 0.0064461)
1.19          (0.935693 0.0219714 0.00927359) (0.999909 0.0377478 0.00125562) (1.0303 -0.0286854 0.00661938)
1.2           (0.93671 0.0246516 0.00906049) (0.997354 0.039721 0.00181119) (1.03275 -0.0281571 0.00721236)
1.21          (0.93941 0.0247146 0.00887299) (0.997937 0.0388066 0.00248015) (1.03183 -0.0289573 0.00781719)
1.22          (0.942059 0.0211997 0.00831395) (1.00006 0.0384828 0.00310846) (1.0277 -0.0312744 0.00834293)
1.23          (0.944049 0.0280046 0.00812626) (0.994495 0.0413375 0.00376806) (1.03275 -0.030377 0.00897013)
1.24          (0.943885 0.026116 0.0074106) (0.99948 0.0378813 0.00420539) (1.0312 -0.0317958 0.010042)
1.25          (0.94275 0.0220956 0.00693424) (1.00652 0.0334398 0.00490828) (1.03046 -0.0306627 0.0111257)
1.26          (0.945078 0.0219159 0.00589745) (1.0046 0.0354762 0.00584745) (1.03175 -0.0297904 0.0116683)
1.27          (0.944274 0.0241473 0.00491843) (1.00442 0.0354671 0.00678427) (1.0358 -0.0272049 0.0123072)
1.28          (0.94654 0.023518 0.00428005) (1.00524 0.0355789 0.00769462) (1.03483 -0.0287151 0.0132693)
1.29          (0.948735 0.022594 0.00347571) (1.00705 0.0346211 0.00906181) (1.03262 -0.0307418 0.0137502)
1.3           (0.950949 0.0237472 0.00238565) (1.0062 0.0344746 0.0101795) (1.03422 -0.0296792 0.014835)
1.31          (0.953501 0.0245047 0.00130469) (1.005 0.0344148 0.0116518) (1.03537 -0.0296202 0.0153983)
1.32          (0.957918 0.0292577 6.90249e-05) (0.999072 0.0367425 0.0127422) (1.03874 -0.0287763 0.0160982)
1.33          (0.958314 0.0295322 -0.00102401) (1.00119 0.0350696 0.0136611) (1.03926 -0.028856 0.0169992)
1.34          (0.960975 0.0245512 -0.00187118) (1.00396 0.0349366 0.0150935) (1.03564 -0.03004 0.0181543)
1.35          (0.962236 0.0253491 -0.00283706) (1.00571 0.0322305 0.0166585) (1.03665 -0.0285639 0.0189445)
1.36          (0.96361 0.0275074 -0.00366654) (1.00377 0.0324013 0.0178186) (1.03932 -0.0278798 0.0197549)
1.37          (0.964003 0.0255701 -0.00457424) (1.00601 0.0316151 0.0194323) (1.0382 -0.0280507 0.0206383)
1.38          (0.965863 0.0237518 -0.00521462) (1.00673 0.0307854 0.0208013) (1.03828 -0.0264479 0.0214977)
1.39          (0.967442 0.0247516 -0.00561575) (1.00647 0.0297477 0.0224963) (1.03839 -0.0270695 0.0217815)
1.4           (0.969172 0.0195152 -0.00651279) (1.01204 0.0263403 0.0239592) (1.03219 -0.0303832 0.0223608)
1.41          (0.970071 0.0200786 -0.00693061) (1.01148 0.0260161 0.0254314) (1.0342 -0.0286396 0.0231193)
1.42          (0.971969 0.0209939 -0.0069872) (1.01065 0.0257649 0.0270762) (1.03506 -0.0270984 0.0235938)
1.43          (0.974462 0.017263 -0.00692936) (1.01211 0.0254194 0.0289958) (1.03123 -0.0282962 0.0240767)
1.44          (0.974277 0.0232556 -0.00708917) (1.00861 0.0240509 0.0303771) (1.0365 -0.0262865 0.0245584)
1.45          (0.97679 0.0200562 -0.00724741) (1.0102 0.0227409 0.0321223) (1.03262 -0.0277651 0.0250472)
1.46          (0.978207 0.0174963 -0.00709196) (1.01161 0.022056 0.0335271) (1.02963 -0.0291039 0.0257486)
1.47          (0.978762 0.0159457 -0.00640949) (1.01267 0.0208182 0.0350609) (1.02876 -0.0283191 0.0269268)
1.48          (0.978396 0.01306 -0.00591539) (1.01539 0.0193547 0.0363834) (1.02749 -0.0271911 0.0274081)
1.49          (0.979359 0.00936252 -0.00535637) (1.01964 0.0159537 0.0376339) (1.02219 -0.0286061 0.0274722)
1.5           (0.979311 0.00738419 -0.0047653) (1.02172 0.0141232 0.0391653) (1.01998 -0.0287095 0.0284518)
1.51          (0.97695 0.0054526 -0.0034385) (1.02525 0.0116122 0.0406791) (1.01971 -0.0271479 0.0286446)
1.52          (0.978808 0.0101034 -0.00228413) (1.01838 0.0142875 0.0416477) (1.02309 -0.025442 0.0283565)
1.53          (0.977814 0.00826065 -0.00140346) (1.02066 0.0118111 0.0428355) (1.02141 -0.0248997 0.028353)
1.54          (0.977801 0.00801013 -0.00052268) (1.02201 0.00988954 0.0438094) (1.01983 -0.0247012 0.028143)
1.55          (0.977655 0.00745534 0.000842818) (1.02227 0.00942054 0.0445198) (1.01841 -0.0244512 0.0281192)
1.56          (0.976467 0.0060678 0.00226162) (1.02406 0.00787604 0.0451003) (1.01708 -0.023996 0.0280939)
1.57          (0.975333 0.00723172 0.00390585) (1.02293 0.00846511 0.045882) (1.0183 -0.0218821 0.0283479)
1.58          (0.973085 0.00410029 0.00530416) (1.02682 0.005753 0.0461323) (1.01533 -0.0223965 0.0284015)
1.59          (0.972854 0.00459821 0.0068476) (1.02719 0.00484176 0.046481) (1.01288 -0.0226908 0.0275231)
1.6           (0.971965 0.00282563 0.00845999) (1.03054 0.00219546 0.0465178) (1.0087 -0.0241212 0.0266783)
1.61          (0.971173 -0.00204657 0.00972501) (1.03501 0.000294662 0.0467546) (1.00173 -0.0266274 0.0263428)
1.62          (0.968828 0.00180184 0.0107325) (1.03365 0.000125326 0.0462602) (1.00471 -0.0235817 0.0259334)
1.63          (0.968263 0.00118604 0.0124308) (1.0339 -0.000172601 0.0458689) (1.00288 -0.0233963 0.0252247)
1.64          (0.964199 0.00033465 0.0137113) (1.03739 -0.00177884 0.0455472) (1.00168 -0.0227776 0.0248044)
1.65          (0.963239 -0.00149388 0.0149132) (1.03832 -0.00181409 0.0449034) (0.998188 -0.022941 0.0240517)
1.66          (0.960128 -0.000197036 0.0160378) (1.03902 -0.00278982 0.0442422) (0.999565 -0.0206254 0.0242233)
1.67          (0.958536 -0.00414628 0.0171287) (1.04205 -0.00171288 0.0427809) (0.994612 -0.0220934 0.0230514)
1.68          (0.954668 -0.00310875 0.0180094) (1.04166 -0.000926793 0.0416034) (0.996614 -0.0189428 0.0222129)
1.69          (0.953062 -0.00235738 0.018705) (1.04211 -0.000487305 0.0402998) (0.994366 -0.0198859 0.0209547)
1.7           (0.946997 -0.0100864 0.0198321) (1.05412 -0.00622467 0.0383647) (0.987565 -0.0209838 0.0205799)
1.71          (0.947992 -0.0077592 0.0205681) (1.0504 -0.00328816 0.0367784) (0.984032 -0.0243365 0.0202072)
1.72          (0.944159 -0.00815924 0.0207344) (1.05355 -0.0047856 0.0350729) (0.983538 -0.0225829 0.0189913)
1.73          (0.943934 -0.00496914 0.0213223) (1.04919 -0.000481449 0.0336567) (0.984697 -0.0218955 0.0182868)
1.74          (0.94145 -0.0044729 0.021162) (1.0492 0.000314449 0.031803) (0.984184 -0.0214789 0.0174231)
1.75          (0.940538 -0.00383515 0.021114) (1.0489 0.00133805 0.0294855) (0.981765 -0.0223509 0.0164587)
1.76          (0.936716 -0.00541533 0.0206626) (1.05238 -0.000492252 0.0275101) (0.980672 -0.0215996 0.0154739)
1.77          (0.933425 -0.00420964 0.0206538) (1.05185 0.00174734 0.0251164) (0.981425 -0.0204871 0.0144252)
1.78          (0.932609 -0.00872751 0.0201108) (1.05425 0.00368528 0.0225882) (0.975429 -0.0233224 0.0145331)
1.79          (0.930462 -0.00990646 0.0187285) (1.05541 0.00451412 0.0201796) (0.973232 -0.0240608 0.0140769)
1.8           (0.930276 -0.00360438 0.0183393) (1.04807 0.00940982 0.0175048) (0.977577 -0.0223459 0.0133757)
1.81          (0.928288 -0.00177638 0.0175335) (1.04615 0.0116929 0.0154694) (0.977921 -0.0231197 0.0117839)
1.82          (0.926316 -0.0023071 0.0162879) (1.0473 0.0119439 0.0128406) (0.976527 -0.0241298 0.0111396)
1.83          (0.921989 -0.00351467 0.0146883) (1.05106 0.00998542 0.0101545) (0.976487 -0.0234818 0.010396)
1.84          (0.919901 -0.00446737 0.0131181) (1.05088 0.0115895 0.00760967) (0.97631 -0.023642 0.00944088)
1.85          (0.918855 -0.0082088 0.0117911) (1.05326 0.0123374 0.00548453) (0.972199 -0.0261643 0.00855819)
1.86          (0.918716 -0.00987431 0.0100877) (1.05199 0.0158318 0.00293903) (0.969869 -0.0282435 0.00763882)
1.87          (0.918916 -0.0101482 0.00831879) (1.05057 0.0169804 0.000516984) (0.968809 -0.0301616 0.0070716)
1.88          (0.917521 -0.0109563 0.0062275) (1.0508 0.0179603 -0.00152993) (0.968434 -0.0312856 0.00703422)
1.89          (0.915447 -0.00980028 0.00402469) (1.04977 0.0192637 -0.00368526) (0.970759 -0.0313146 0.00596781)
1.9           (0.917524 -0.00627219 0.00192641) (1.04186 0.0244315 -0.00606517) (0.974253 -0.0314945 0.00501841)
1.91          (0.915958 -0.00545165 6.21326e-05) (1.03951 0.0264145 -0.0080189) (0.976858 -0.0323565 0.00468748)
1.92          (0.915973 -0.00977149 -0.00250952) (1.04093 0.0272206 -0.00964615) (0.974158 -0.0351103 0.00355758)
1.93          (0.915549 -0.00805295 -0.00469801) (1.03855 0.0287411 -0.0112582) (0.976217 -0.0362086 0.00251455)
1.94          (0.917065 -0.00979475 -0.0068713) (1.03765 0.0296932 -0.0129695) (0.974306 -0.0400123 0.00137835)
1.95          (0.915166 -0.0090716 -0.00920191) (1.03554 0.0304893 -0.0141459) (0.979052 -0.0395319 0.000738348)
1.96          (0.915945 -0.00960896 -0.0108312) (1.03117 0.0348601 -0.0154581) (0.981413 -0.0406581 0.00063447)
1.97          (0.917223 -0.0094657 -0.0132792) (1.02854 0.0351312 -0.0167219) (0.983445 -0.0421399 -9.32137e-05)
1.98          (0.91586 -0.010668 -0.0155396) (1.02617 0.0374995 -0.0174122) (0.987187 -0.0429645 -0.000707827)
1.99          (0.919073 -0.00732369 -0.0178307) (1.01875 0.0406363 -0.0178977) (0.991737 -0.0437519 -0.00139095)
2             (0.919554 -0.00683186 -0.0197993) (1.01611 0.0418452 -0.0185823) (0.996084 -0.043928 -0.00196043)
2.01          (0.920006 -0.00858268 -0.0216055) (1.01575 0.0412034 -0.01889) (0.998093 -0.0452592 -0.00257101)
2.02          (0.92018 -0.0108691 -0.0235557) (1.01643 0.0395646 -0.0191988) (1.00051 -0.046173 -0.00337382)
2.03          (0.921981 -0.00752617 -0.0254037) (1.00817 0.0441247 -0.0192116) (1.00796 -0.0457036 -0.00397705)
2.04          (0.922677 -0.0105632 -0.0266744) (1.00989 0.041662 -0.0192122) (1.00967 -0.0473407 -0.00453617)
2.05          (0.92485 -0.0145858 -0.028231) (1.00956 0.0411475 -0.0190964) (1.00988 -0.0495997 -0.00506635)
2.06          (0.926412 -0.00961044 -0.029934) (1.00374 0.0421573 -0.0183829) (1.01736 -0.049005 -0.00666731)
2.07          (0.928136 -0.0132522 -0.0311726) (1.00314 0.0418872 -0.0179136) (1.01884 -0.0498785 -0.00660469)
2.08          (0.928799 -0.0154143 -0.0321803) (1.00407 0.03987 -0.0174186) (1.0215 -0.0508299 -0.00666741)
2.09          (0.931451 -0.0134832 -0.0329164) (0.997988 0.0416618 -0.0167101) (1.02784 -0.0503492 -0.00670564)
2.1           (0.931915 -0.016699 -0.0337171) (0.998022 0.040969 -0.0160645) (1.03096 -0.0500052 -0.00714715)
2.11          (0.933319 -0.0174074 -0.0338492) (0.996794 0.0391284 -0.0149451) (1.03581 -0.0491064 -0.00773286)
2.12          (0.935805 -0.0203284 -0.0341692) (0.998591 0.0365861 -0.0136872) (1.03643 -0.0503984 -0.00783053)
2.13          (0.938784 -0.0215637 -0.0343262) (0.997079 0.0359579 -0.0126871) (1.03904 -0.0500894 -0.0078742)
2.14          (0.940304 -0.0210159 -0.0344495) (0.993589 0.0366243 -0.012028) (1.04466 -0.0485629 -0.00777781)
2.15          (0.94248 -0.0171892 -0.0343926) (0.989293 0.0353905 -0.0108134) (1.05154 -0.0462889 -0.00775391)
2.16          (0.944885 -0.0219796 -0.034005) (0.993318 0.0308757 -0.00955336) (1.05085 -0.045734 -0.00718732)
2.17          (0.947129 -0.022101 -0.0334495) (0.991519 0.0294002 -0.00812327) (1.05466 -0.0444898 -0.00693176)
2.18          (0.949706 -0.0219142 -0.0327568) (0.990134 0.0275409 -0.00695025) (1.0571 -0.0438062 -0.0067024)
2.19          (0.951481 -0.0195393 -0.0319958) (0.987077 0.0275826 -0.00580762) (1.06245 -0.0408443 -0.00644411)
2.2           (0.951196 -0.0212407 -0.0308358) (0.98956 0.0236665 -0.00480364) (1.06557 -0.0381024 -0.00699432)
2.21          (0.954287 -0.021174 -0.0296409) (0.988382 0.0220331 -0.00373323) (1.06731 -0.035963 -0.00656934)
2.22          (0.956613 -0.023476 -0.0285414) (0.990785 0.018788 -0.00257182) (1.06566 -0.0359992 -0.00612133)
2.23          (0.960297 -0.0230721 -0.0275064) (0.987874 0.0189949 -0.00147824) (1.06697 -0.0339111 -0.00548508)
2.24          (0.961233 -0.0209086 -0.0259723) (0.985724 0.0176049 -0.000371336) (1.07203 -0.029855 -0.00501831)
2.25          (0.961049 -0.0177445 -0.0241458) (0.984839 0.0158089 0.000122713) (1.0766 -0.0259767 -0.00487636)
2.26          (0.963243 -0.0208244 -0.0221923) (0.988246 0.0127991 0.000890212) (1.0736 -0.0250104 -0.00515154)
2.27          (0.966887 -0.0208831 -0.020455) (0.987717 0.0115735 0.00184046) (1.07116 -0.0244812 -0.00507892)
2.28          (0.966872 -0.0195797 -0.0185616) (0.990176 0.00714353 0.00277716) (1.0721 -0.0215754 -0.00441119)
2.29          (0.969589 -0.0181759 -0.0169316) (0.988035 0.00727357 0.00358271) (1.07241 -0.0189548 -0.00446171)
2.3           (0.972007 -0.0129338 -0.0147943) (0.982635 0.00861142 0.00402428) (1.07515 -0.0161598 -0.00378543)
2.31          (0.973741 -0.00950699 -0.0126095) (0.979971 0.00879458 0.00385497) (1.07707 -0.0126948 -0.00417905)
2.32          (0.974645 -0.00722076 -0.0107004) (0.978555 0.00849534 0.00406111) (1.0777 -0.0101244 -0.00485388)
2.33          (0.975504 -0.0099595 -0.00889945) (0.983414 0.00586927 0.00452135) (1.07123 -0.0109841 -0.00476746)
2.34          (0.974723 -0.0119469 -0.00713615) (0.989606 0.00136647 0.00483313) (1.06671 -0.00979502 -0.00530203)
2.35          (0.975337 -0.00880068 -0.00495618) (0.988136 0.00138575 0.00493973) (1.06663 -0.00819095 -0.00573406)
2.36          (0.977578 -0.00717307 -0.00314296) (0.988015 0.00202728 0.00528384) (1.06201 -0.00847495 -0.00640163)
2.37          (0.978823 -0.00672442 -0.00163585) (0.988916 0.00142433 0.0053182) (1.05875 -0.00815445 -0.00692153)
2.38          (0.979302 -0.0020396 0.000182894) (0.986222 0.00356061 0.00512854) (1.05937 -0.00652856 -0.00687896)
2.39          (0.978695 -0.00305643 0.00183733) (0.989133 0.00375389 0.00479973) (1.05463 -0.00700685 -0.00769326)
2.4           (0.976025 -0.00228144 0.00320071) (0.991344 0.00374045 0.00427707) (1.05286 -0.00589822 -0.00939478)
2.41          (0.975535 -0.00426704 0.00415532) (0.996825 0.00201376 0.00434385) (1.04537 -0.0092458 -0.00989345)
2.42          (0.974121 -0.000131983 0.00561818) (0.995332 0.00398453 0.00413439) (1.04494 -0.00866216 -0.0112731)
2.43          (0.972638 0.00826367 0.00686506) (0.991158 0.00658692 0.00377471) (1.04763 -0.00743371 -0.0125086)
2.44          (0.969829 0.0075173 0.00797246) (0.99567 0.00574831 0.00334959) (1.04435 -0.00769361 -0.0135429)
2.45          (0.967099 0.00229536 0.00868669) (1.00467 0.00401989 0.00303362) (1.03616 -0.0102906 -0.0146895)
2.46          (0.966791 0.0059266 0.00922191) (1.0046 0.00533418 0.00272036) (1.03391 -0.0115794 -0.0161068)
2.47          (0.965 0.00975782 0.00984542) (1.00292 0.00849432 0.00228646) (1.03358 -0.0122378 -0.0174055)
2.48          (0.963597 0.0125397 0.0104614) (1.00121 0.0129728 0.00165691) (1.03224 -0.0137776 -0.0185052)
2.49          (0.960428 0.00891223 0.0109731) (1.00802 0.0124746 0.00115333) (1.02583 -0.0171002 -0.019659)
2.5           (0.957914 0.0122109 0.0115361) (1.00928 0.0141131 0.00100498) (1.02391 -0.0192526 -0.0204439)
2.51          (0.953969 0.0109694 0.0111696) (1.01489 0.0152722 0.000324735) (1.01868 -0.0230086 -0.0216803)
2.52          (0.951775 0.00714532 0.0115296) (1.02151 0.0157326 -0.000142451) (1.01222 -0.0266895 -0.0230068)
2.53          (0.952373 0.00794557 0.011677) (1.01935 0.0210493 -0.00075042) (1.00973 -0.0291804 -0.0242006)
2.54          (0.950919 0.0078233 0.011326) (1.0203 0.0244017 -0.0012649) (1.00548 -0.0334378 -0.025372)
2.55          (0.94855 0.0101056 0.0113936) (1.02017 0.0278552 -0.00195214) (1.00504 -0.0357359 -0.0260993)
2.56          (0.948392 0.0165526 0.0115267) (1.01329 0.0358846 -0.00263013) (1.00858 -0.0364944 -0.0263334)
2.57          (0.942734 0.0170019 0.011065) (1.0175 0.037074 -0.00339423) (1.00913 -0.0373632 -0.0271855)
2.58          (0.943293 0.0136652 0.010877) (1.01961 0.0413184 -0.00389522) (1.00126 -0.0444763 -0.0280209)
2.59          (0.941634 0.00961401 0.0108783) (1.0237 0.0427324 -0.00426403) (0.99598 -0.0493624 -0.0282976)
2.6           (0.937774 0.0106151 0.0107953) (1.0237 0.0461271 -0.00518603) (0.998617 -0.0492249 -0.0291581)
2.61          (0.936273 0.00896614 0.0108716) (1.02575 0.0495347 -0.00588765) (0.995694 -0.0527077 -0.0296287)
2.62          (0.934986 0.0105794 0.0110928) (1.02433 0.0534509 -0.00632451) (0.997095 -0.0534801 -0.0304144)
2.63          (0.933246 0.0117568 0.0108532) (1.02359 0.0571067 -0.00699512) (0.997852 -0.0551975 -0.0307747)
2.64          (0.933211 0.00689234 0.0108963) (1.02656 0.0596738 -0.00769392) (0.992742 -0.0593379 -0.0306783)
2.65          (0.930961 0.00857964 0.0108395) (1.02449 0.0638299 -0.00847431) (0.996294 -0.0597737 -0.0299011)
2.66          (0.928272 0.00967007 0.0109722) (1.02395 0.067079 -0.00943391) (0.998647 -0.0604815 -0.0301288)
2.67          (0.928702 0.00472137 0.0107582) (1.02616 0.0695443 -0.00999794) (0.994483 -0.0636078 -0.0301557)
2.68          (0.928413 0.00515657 0.0110057) (1.02586 0.0709051 -0.0109207) (0.995042 -0.0652247 -0.0302096)