# Probe 0 (-1.5 0 0)
# Time        0            
0.01          (0.908957 -0.041564 -0.0025759)
0.02          (0.866119 -0.0663626 -0.00444396)
0.03          (0.87726 -0.0621367 -0.00382441)
0.04          (0.886812 -0.0694237 -0.00418377)
0.05          (0.888151 -0.0794585 -0.00356373)
0.06          (0.895342 -0.0858073 -0.00445657)
0.07          (0.898817 -0.0946935 -0.00551907)
0.08          (0.900391 -0.10351 -0.00606399)
0.09          (0.90001 -0.0926498 -0.00686631)
0.1           (0.897571 -0.0872762 -0.00813959)
0.11          (0.896819 -0.0842107 -0.00845833)
0.12          (0.898726 -0.0891124 -0.0089236)
0.13          (0.884848 -0.0950069 -0.00806279)
0.14          (0.88253 -0.0985935 -0.00825793)
0.15          (0.876256 -0.0837699 -0.00813712)
0.16          (0.873532 -0.0730147 -0.00832005)
0.17          (0.869815 -0.065739 -0.00905526)
0.18          (0.868571 -0.065282 -0.00980596)
0.19          (0.867194 -0.0722703 -0.0104938)
0.2           (0.869334 -0.0587735 -0.0110337)
0.21          (0.87031 -0.0563443 -0.0120882)
0.22          (0.86729 -0.0545175 -0.0121515)
0.23          (0.881075 -0.0815778 -0.0133638)
0.24          (0.88061 -0.0834936 -0.0138144)
0.25          (0.878719 -0.0865374 -0.0137173)
0.26          (0.878941 -0.0821345 -0.0133831)
0.27          (0.877118 -0.0849369 -0.0138459)
0.28          (0.877009 -0.0763146 -0.0139498)
0.29          (0.871647 -0.0706681 -0.0129023)
0.3           (0.871517 -0.0689925 -0.0126797)
0.31          (0.870378 -0.0750154 -0.0122235)
0.32          (0.868826 -0.0860365 -0.0118407)
0.33          (0.868283 -0.0801437 -0.0120957)
0.34          (0.87197 -0.0794907 -0.0143844)
0.35          (0.869662 -0.0722142 -0.0147391)
0.36          (0.87041 -0.0754824 -0.0144962)
0.37          (0.867869 -0.073481 -0.0146697)
0.38          (0.864027 0.00206765 -0.0178318)
0.39          (0.860792 -0.00598183 -0.0176233)
0.4           (0.859765 -0.00705584 -0.0180223)
0.41          (0.856812 -0.00478596 -0.017839)
0.42          (0.851096 -0.00988857 -0.0175971)
0.43          (0.849801 -0.0120516 -0.0173634)
0.44          (0.837529 -0.0187809 -0.017314)
0.45          (0.831232 -0.0194342 -0.0168292)
0.46          (0.829572 -0.0287361 -0.0171644)
0.47          (0.82712 -0.0399902 -0.0161909)
0.48          (0.824823 -0.0471226 -0.0156745)
0.49          (0.82783 -0.0515525 -0.0159164)
0.5           (0.825579 -0.0473382 -0.0158296)
0.51          (0.827429 -0.0568678 -0.0157472)
0.52          (0.823481 -0.0563736 -0.0155704)
0.53          (0.820202 -0.0460697 -0.0151086)
0.54          (0.828376 -0.0426082 -0.0212769)
0.55          (0.830208 -0.0430887 -0.0204424)
0.56          (0.826001 -0.0338262 -0.0197342)
0.57          (0.823279 -0.0339873 -0.0184404)
0.58          (0.825554 -0.0123333 -0.0169087)
0.59          (0.818589 -0.0172012 -0.0159254)
0.6           (0.81236 -0.0216898 -0.0151527)
0.61          (0.813355 -0.0111662 -0.0128084)
0.62          (0.82759 -0.0375567 -0.0117221)
0.63          (0.820725 -0.0600076 -0.0101792)
0.64          (0.825586 -0.0893312 -0.0103971)
0.65          (0.810405 -0.0902931 -0.00827546)
0.66          (0.807329 -0.123909 -0.00686388)
0.67          (0.798922 -0.118998 -0.00578009)
0.68          (0.790799 -0.107662 -0.00371978)
0.69          (0.78224 -0.106885 -0.00195415)
0.7           (0.76954 -0.0984373 -4.28078e-05)
0.71          (0.76041 -0.087375 0.0017972)
0.72          (0.748242 -0.0668473 0.00364368)
0.73          (0.735756 -0.0526797 0.0055507)
0.74          (0.729238 -0.0517112 0.0074313)
0.75          (0.725103 -0.0494111 0.0060926)
0.76          (0.711118 -0.0413026 0.00756535)
0.77          (0.698058 -0.0336298 0.00871888)
0.78          (0.685826 -0.0239785 0.00952698)
0.79          (0.638346 -0.0727875 0.0180193)
0.8           (0.627315 -0.0662398 0.0179658)
0.81          (0.631074 -0.0734405 0.014809)
0.82          (0.622502 -0.055091 0.0154998)
0.83          (0.6177 -0.0649631 0.0160719)
0.84          (0.610001 -0.0551147 0.0159839)
0.85          (0.608756 -0.0511514 0.0125225)
0.86          (0.596568 -0.0474101 0.0110624)
0.87          (0.583445 -0.0509103 0.00986147)
0.88          (0.57767 -0.0467155 0.00839162)
0.89          (0.569266 -0.0375166 0.00755657)
0.9           (0.559646 -0.0334786 0.00547252)
0.91          (0.546095 -0.025692 0.00435329)
0.92          (0.539128 -0.0260242 0.0030426)
0.93          (0.532326 -0.0149559 0.00118888)
0.94          (0.523973 -0.0163476 -0.00076648)
0.95          (0.525255 -0.033448 -0.0114728)
0.96          (0.51778 -0.0380631 -0.0138891)
0.97          (0.510753 -0.0381559 -0.016234)
0.98          (0.503757 -0.0463039 -0.0181326)
0.99          (0.49689 -0.0301007 -0.0207054)
1             (0.499338 -0.0259758 -0.016744)
1.01          (0.495109 -0.0220677 -0.019128)
1.02          (0.489892 -0.029715 -0.0225438)
1.03          (0.490483 -0.0568103 -0.0253855)
1.04          (0.473592 -0.109999 -0.0273414)
1.05          (0.481042 -0.136085 -0.0294546)
1.06          (0.47074 -0.141012 -0.0312175)
1.07          (0.461955 -0.114969 -0.0326816)
1.08          (0.453156 -0.111381 -0.0340526)
1.09          (0.451117 -0.10081 -0.0359105)
1.1           (0.448353 -0.0915634 -0.0373335)
1.11          (0.444206 -0.0775768 -0.0382359)
1.12          (0.443944 -0.0783729 -0.0387806)
1.13          (0.443814 -0.0596992 -0.0395519)
1.14          (0.439599 -0.0559718 -0.0399239)
1.15          (0.436688 -0.0443813 -0.041455)
1.16          (0.444099 -0.0153578 -0.0409806)
1.17          (0.425902 0.0167704 -0.0404734)
1.18          (0.42476 0.0160394 -0.0398872)
1.19          (0.425105 0.0134575 -0.0388307)
1.2           (0.411917 0.00528758 -0.0345423)
1.21          (0.410361 0.00644319 -0.0318767)
1.22          (0.397026 -0.0227736 -0.0333279)
1.23          (0.401697 -0.0353033 -0.0284209)
1.24          (0.388547 -0.00500792 -0.023745)
1.25          (0.392747 -0.00781666 -0.0166586)
1.26          (0.389554 0.00732041 -0.00965834)
1.27          (0.395495 0.00253152 -0.00358069)
1.28          (0.409492 -0.019876 0.00379653)
1.29          (0.416199 -0.0337979 0.0109711)
1.3           (0.424013 -0.057132 0.0194634)
1.31          (0.433382 -0.0689464 0.0283236)
1.32          (0.447448 -0.0890194 0.0381997)
1.33          (0.455583 -0.103795 0.0483921)
1.34          (0.471452 -0.1157 0.0581673)
1.35          (0.484537 -0.129481 0.0680477)
1.36          (0.51804 -0.104035 0.0757942)
1.37          (0.530274 -0.118442 0.0863896)
1.38          (0.543776 -0.144283 0.0977636)
1.39          (0.56006 -0.147391 0.109157)
1.4           (0.564533 -0.144992 0.12015)
1.41          (0.58398 -0.10457 0.121815)
1.42          (0.594943 -0.114502 0.134268)
1.43          (0.604013 -0.112375 0.14748)
1.44          (0.620505 -0.137239 0.159012)
1.45          (0.623684 -0.102603 0.170936)
1.46          (0.64024 -0.158831 0.182713)
1.47          (0.643952 -0.187643 0.193719)
1.48          (0.651148 -0.202484 0.20498)
1.49          (0.653732 -0.21985 0.214843)
1.5           (0.660346 -0.233883 0.223547)
1.51          (0.663069 -0.252945 0.231814)
1.52          (0.671805 -0.279517 0.238697)
1.53          (0.676701 -0.298466 0.244539)
1.54          (0.683593 -0.330626 0.249279)
1.55          (0.693604 -0.348898 0.252594)
1.56          (0.699811 -0.380903 0.253838)
1.57          (0.725346 -0.354173 0.253428)
1.58          (0.733639 -0.36982 0.252002)
1.59          (0.739349 -0.37514 0.248587)
1.6           (0.750301 -0.386761 0.243026)
1.61          (0.757598 -0.391414 0.239745)
1.62          (0.766681 -0.395415 0.22898)
1.63          (0.773438 -0.44135 0.230747)
1.64          (0.789687 -0.435757 0.214632)
1.65          (0.821033 -0.455377 0.197878)
1.66          (0.838071 -0.448477 0.176584)
1.67          (0.859999 -0.483034 0.151388)
1.68          (0.872829 -0.470963 0.125814)
1.69          (0.892718 -0.466802 0.0982411)
1.7           (0.911791 -0.457697 0.0698291)
1.71          (0.925971 -0.439791 0.0409178)
1.72          (0.935991 -0.42746 0.0126129)
1.73          (0.945989 -0.409685 -0.0151931)
1.74          (0.947804 -0.381397 -0.0424527)
1.75          (0.943691 -0.362508 -0.0685946)
1.76          (0.940933 -0.34246 -0.0920126)
1.77          (0.933751 -0.445954 -0.12255)
1.78          (0.923859 -0.436195 -0.146195)
1.79          (0.919382 -0.42474 -0.167878)
1.8           (0.910501 -0.410627 -0.187195)
1.81          (0.890167 -0.360528 -0.202975)
1.82          (0.86456 -0.413476 -0.215745)
1.83          (0.854383 -0.387524 -0.228107)
1.84          (0.841331 -0.367185 -0.23712)
1.85          (0.826139 -0.340967 -0.243646)
1.86          (0.806925 -0.3549 -0.251644)
1.87          (0.796897 -0.345441 -0.256212)
1.88          (0.791507 -0.324874 -0.260103)
1.89          (0.778549 -0.315254 -0.261533)
1.9           (0.769946 -0.30302 -0.26238)
1.91          (0.764505 -0.294408 -0.261872)
1.92          (0.757506 -0.282409 -0.260279)
1.93          (0.754421 -0.263807 -0.257586)
1.94          (0.743481 -0.240331 -0.253427)
1.95          (0.738094 -0.225436 -0.247806)
1.96          (0.735671 -0.226136 -0.241216)
1.97          (0.728456 -0.218828 -0.234057)
1.98          (0.722842 -0.181876 -0.220473)
1.99          (0.715397 -0.161543 -0.209344)
2             (0.71312 -0.169313 -0.197166)
2.01          (0.712323 -0.173338 -0.184928)
2.02          (0.696128 -0.158158 -0.173927)
2.03          (0.698581 -0.155411 -0.161695)
2.04          (0.707247 -0.142182 -0.142113)
2.05          (0.710731 -0.14604 -0.129138)
2.06          (0.717226 -0.170035 -0.115809)
2.07          (0.722449 -0.171149 -0.102998)
2.08          (0.708628 -0.190445 -0.091796)
2.09          (0.713919 -0.193966 -0.0805465)
2.1           (0.728082 -0.21998 -0.0694151)
2.11          (0.735137 -0.224641 -0.0586128)
2.12          (0.744062 -0.232833 -0.0462584)
2.13          (0.745526 -0.242697 -0.0375606)
2.14          (0.749259 -0.240103 -0.0274399)
2.15          (0.756167 -0.242362 -0.0174522)
2.16          (0.760482 -0.238312 -0.007408)
2.17          (0.767673 -0.247021 0.00328146)
2.18          (0.777679 -0.194317 0.0128004)
2.19          (0.78348 -0.182719 0.0256703)
2.2           (0.790635 -0.180854 0.0381228)
2.21          (0.797161 -0.167602 0.0503079)
2.22          (0.80489 -0.157655 0.0636354)
2.23          (0.814438 -0.170278 0.0805695)
2.24          (0.82472 -0.174262 0.0944692)
2.25          (0.82569 -0.151342 0.108399)
2.26          (0.847554 -0.202023 0.123037)
2.27          (0.85831 -0.207287 0.138859)
2.28          (0.870828 -0.228369 0.154541)
2.29          (0.88035 -0.227765 0.171116)
2.3           (0.889279 -0.242852 0.187981)
2.31          (0.89354 -0.243009 0.206555)
2.32          (0.890819 -0.232666 0.225323)
2.33          (0.8886 -0.23523 0.245567)
2.34          (0.880355 -0.223847 0.265804)
2.35          (0.876869 -0.205456 0.287204)
2.36          (0.868304 -0.180017 0.309017)
2.37          (0.857955 -0.165253 0.331403)
2.38          (0.834022 -0.114513 0.352861)
2.39          (0.825441 -0.0980966 0.376857)
2.4           (0.807297 -0.0592091 0.397363)
2.41          (0.795991 -0.0364732 0.417518)
2.42          (0.784369 -0.0132257 0.436378)
2.43          (0.771315 0.0309232 0.457514)
2.44          (0.757629 0.053359 0.471188)
2.45          (0.743374 0.0716377 0.491179)
2.46          (0.733212 0.0892481 0.499503)
2.47          (0.716933 0.167997 0.504247)
2.48          (0.709731 0.191299 0.50444)
2.49          (0.710127 0.190512 0.500858)
2.5           (0.709848 0.206909 0.493115)
2.51          (0.716876 0.213506 0.481274)
2.52          (0.718075 0.240449 0.465441)
2.53          (0.715778 0.261202 0.44571)
2.54          (0.717423 0.279869 0.423218)
2.55          (0.724675 0.298644 0.397391)
2.56          (0.728618 0.314713 0.369332)
2.57          (0.733878 0.327823 0.339917)
2.58          (0.740494 0.333168 0.310005)
2.59          (0.735386 0.338925 0.286039)
2.6           (0.734313 0.336114 0.254492)
2.61          (0.735894 0.330217 0.223022)
2.62          (0.736497 0.317216 0.190933)
2.63          (0.729896 0.302382 0.15904)
2.64          (0.713299 0.260916 0.116393)
2.65          (0.709103 0.232691 0.0858594)
2.66          (0.7085 0.200755 0.0565225)
2.67          (0.698148 0.178075 0.0276498)
2.68          (0.698083 0.15216 -0.0024044)
2.69          (0.701464 0.0998758 -0.030546)
2.7           (0.70147 0.0418329 -0.0582344)
2.71          (0.717105 -0.0517346 -0.0862627)
2.72          (0.725164 -0.113202 -0.113838)
2.73          (0.729813 -0.171768 -0.139007)
2.74          (0.731911 -0.225721 -0.163808)
2.75          (0.743397 -0.283944 -0.187853)
2.76          (0.761575 -0.33241 -0.209255)
2.77          (0.770013 -0.371953 -0.228285)
2.78          (0.784648 -0.414019 -0.244935)
2.79          (0.797571 -0.417563 -0.258885)
2.8           (0.829448 -0.450331 -0.268214)
2.81          (0.849359 -0.468095 -0.27977)
2.82          (0.870944 -0.48147 -0.287843)
2.83          (0.891126 -0.497291 -0.294267)
2.84          (0.928994 -0.557821 -0.30331)
2.85          (0.951659 -0.569567 -0.306096)
2.86          (0.985468 -0.546244 -0.316775)
2.87          (1.00708 -0.558148 -0.31791)
2.88          (1.02984 -0.557477 -0.320891)
2.89          (1.04953 -0.556091 -0.321446)
2.9           (1.0463 -0.571877 -0.318669)
2.91          (1.06199 -0.555181 -0.318799)
2.92          (1.05569 -0.507476 -0.319227)
2.93          (1.06464 -0.477288 -0.320567)
2.94          (1.07252 -0.459683 -0.32227)
2.95          (1.07284 -0.428841 -0.324523)
2.96          (1.07291 -0.396351 -0.327157)
2.97          (1.06798 -0.369272 -0.330739)
2.98          (1.06536 -0.355144 -0.334611)
2.99          (1.06123 -0.330976 -0.338911)
3             (1.06306 -0.259875 -0.349423)
3.01          (1.05564 -0.243102 -0.354368)
3.02          (1.04624 -0.222828 -0.359081)
3.03          (1.0322 -0.208391 -0.363705)
3.04          (1.01932 -0.202585 -0.366296)
3.05          (0.994533 -0.247834 -0.365358)
3.06          (0.979424 -0.22632 -0.368205)
3.07          (0.962641 -0.196742 -0.371387)
3.08          (0.953543 -0.175356 -0.375308)
3.09          (0.941067 -0.156698 -0.379085)
3.1           (0.925633 -0.105566 -0.380472)
3.11          (0.90824 -0.0785935 -0.381916)
3.12          (0.889357 -0.0491087 -0.382171)
3.13          (0.876369 -0.0310003 -0.381466)
3.14          (0.859063 -0.00896977 -0.379256)
3.15          (0.841928 0.0107832 -0.377032)
3.16          (0.833339 0.0220792 -0.374003)
3.17          (0.825729 0.0387289 -0.369141)
3.18          (0.81072 0.0605428 -0.362971)
3.19          (0.807139 0.0651114 -0.35604)
3.2           (0.785094 0.108241 -0.34816)
3.21          (0.793066 0.148289 -0.33839)
3.22          (0.791707 0.132892 -0.328959)
3.23          (0.790047 0.138228 -0.317673)
3.24          (0.78935 0.140466 -0.305641)
3.25          (0.798861 0.0925161 -0.303407)
3.26          (0.797727 0.0923 -0.29273)
3.27          (0.795156 0.0536324 -0.278281)
3.28          (0.794945 0.0497998 -0.268623)
3.29          (0.794453 0.0324315 -0.259862)
3.3           (0.788379 0.019487 -0.251941)
3.31          (0.781942 0.0204517 -0.244713)
3.32          (0.772566 0.0116204 -0.238578)
3.33          (0.770522 0.00332468 -0.232024)
3.34          (0.767903 0.00084373 -0.228585)
3.35          (0.763163 -0.0156471 -0.225262)
3.36          (0.753588 -0.0223537 -0.223429)
3.37          (0.742869 -0.0251071 -0.22211)
3.38          (0.727613 -0.0300831 -0.222505)
3.39          (0.713226 -0.0512214 -0.223065)
3.4           (0.697708 -0.061029 -0.224367)
3.41          (0.63937 -0.14359 -0.225428)
3.42          (0.619205 -0.157137 -0.230047)
3.43          (0.600247 -0.164854 -0.234514)
3.44          (0.577348 -0.174818 -0.238637)
3.45          (0.553178 -0.170377 -0.242504)
3.46          (0.537015 -0.170862 -0.24114)
3.47          (0.51453 -0.180137 -0.244701)
3.48          (0.491692 -0.163352 -0.249294)
3.49          (0.466038 -0.130749 -0.252046)
3.5           (0.448591 -0.111296 -0.252293)
3.51          (0.438609 -0.0949543 -0.251739)
3.52          (0.428988 -0.0979896 -0.251433)
3.53          (0.422033 -0.0897855 -0.251)
3.54          (0.414462 -0.0836599 -0.250972)
3.55          (0.409936 -0.0783636 -0.250363)
3.56          (0.40852 -0.0712842 -0.249505)
3.57          (0.410436 -0.066966 -0.248078)
3.58          (0.415641 -0.0544844 -0.246416)
3.59          (0.4174 -0.0361371 -0.243599)
3.6           (0.42634 -0.026976 -0.240658)
3.61          (0.446546 -0.035397 -0.237654)
3.62          (0.450677 -0.0332559 -0.228949)
3.63          (0.459881 -0.0169171 -0.227154)
3.64          (0.470322 -0.00210151 -0.223077)
3.65          (0.483877 0.0124823 -0.219044)
3.66          (0.493555 -0.00354054 -0.212224)
3.67          (0.506108 0.0118611 -0.206894)
3.68          (0.529947 -0.0694285 -0.198703)
3.69          (0.551443 -0.0545108 -0.191706)
3.7           (0.576777 -0.0546598 -0.18436)
3.71          (0.595907 -0.0309386 -0.175904)
3.72          (0.612928 -0.0314118 -0.163196)
3.73          (0.634546 -0.00960112 -0.151684)
3.74          (0.651192 0.0169722 -0.138917)
3.75          (0.670669 0.0355176 -0.123551)
3.76          (0.689988 0.0404404 -0.107256)
3.77          (0.699626 0.056065 -0.0893322)
3.78          (0.713577 0.0762095 -0.0720135)
3.79          (0.726615 0.102551 -0.0536917)
3.8           (0.72952 0.122627 -0.0350243)
3.81          (0.72813 0.140524 -0.0172876)
3.82          (0.736902 0.121136 -0.0125789)
3.83          (0.733917 0.137275 0.00431828)
3.84          (0.727189 0.152772 0.020757)
3.85          (0.720046 0.170385 0.0358884)
3.86          (0.71046 0.186251 0.0501755)
3.87          (0.697139 0.242137 0.0591259)
3.88          (0.679537 0.257126 0.0685053)
3.89          (0.673834 0.252394 0.0762111)
3.9           (0.645009 0.283749 0.0839833)
3.91          (0.633686 0.319829 0.0912017)
3.92          (0.596124 0.365859 0.0948002)
3.93          (0.578451 0.37531 0.0967541)
3.94          (0.559609 0.381909 0.0966286)
3.95          (0.535324 0.40216 0.0976785)
3.96          (0.51421 0.421816 0.0967681)
3.97          (0.494452 0.433364 0.0959037)
3.98          (0.475269 0.446166 0.0939838)
3.99          (0.458573 0.462622 0.0920381)
4             (0.444487 0.464894 0.0904883)
4.01          (0.432721 0.470116 0.0887478)
4.02          (0.418535 0.493704 0.0874652)
4.03          (0.401116 0.488862 0.0865972)
4.04          (0.381602 0.518266 0.0865498)
4.05          (0.373042 0.517535 0.0874172)
4.06          (0.370671 0.513271 0.0894841)
4.07          (0.355452 0.577918 0.0876719)
4.08          (0.353309 0.568455 0.0926498)
4.09          (0.335037 0.607657 0.0990098)
4.1           (0.337212 0.602905 0.107011)
4.11          (0.340206 0.596654 0.116512)
4.12          (0.344196 0.590952 0.127001)
4.13          (0.34892 0.577665 0.138748)
4.14          (0.353457 0.564699 0.150383)
4.15          (0.354757 0.539757 0.161979)
4.16          (0.359706 0.535594 0.173714)
4.17          (0.364058 0.518062 0.185058)
4.18          (0.359975 0.497523 0.195421)
4.19          (0.358338 0.472038 0.204617)
4.2           (0.359006 0.456037 0.212545)
4.21          (0.359245 0.440341 0.219059)
4.22          (0.358319 0.420595 0.224419)
4.23          (0.358013 0.34886 0.224341)
4.24          (0.358029 0.331705 0.226039)
4.25          (0.358325 0.32726 0.226406)
4.26          (0.3601 0.305746 0.225597)
4.27          (0.370948 0.25976 0.22353)
4.28          (0.376804 0.258695 0.213725)
4.29          (0.376536 0.234591 0.208792)
4.3           (0.377301 0.207383 0.202924)
4.31          (0.380519 0.187216 0.196733)
4.32          (0.387964 0.165476 0.187926)
4.33          (0.386099 0.157123 0.179932)
4.34          (0.377295 0.142524 0.172181)
4.35          (0.358738 0.170014 0.164339)
4.36          (0.354862 0.15939 0.156283)
4.37          (0.351611 0.149127 0.147757)
4.38          (0.347558 0.13768 0.140024)
4.39          (0.342506 0.130502 0.132686)
4.4           (0.338181 0.116676 0.126478)
4.41          (0.334345 0.10257 0.119332)
4.42          (0.329137 0.092167 0.113342)
4.43          (0.319536 0.0962081 0.107683)
4.44          (0.317169 0.0873103 0.102121)
4.45          (0.31079 0.0887189 0.0974466)
4.46          (0.30873 0.0747408 0.0934256)
4.47          (0.306618 0.0635814 0.0901823)
4.48          (0.277497 0.0355482 0.0826987)
4.49          (0.276776 0.0242553 0.0805517)
4.5           (0.298075 0.0788904 0.0780193)
4.51          (0.298944 0.0689289 0.0770811)
4.52          (0.319493 0.0111011 0.0771749)
4.53          (0.31487 -0.00563587 0.0786188)
4.54          (0.318103 0.0115063 0.0797626)
4.55          (0.314829 0.00459944 0.0834247)
4.56          (0.320424 -0.0269549 0.0881861)
4.57          (0.316931 -0.0470743 0.093451)
4.58          (0.306164 -0.0751444 0.0996407)
4.59          (0.291536 -0.0761945 0.105871)
4.6           (0.279401 -0.089236 0.112715)
4.61          (0.271539 -0.0943716 0.120394)
4.62          (0.257568 -0.0955794 0.128417)
4.63          (0.249295 -0.101406 0.136512)
4.64          (0.248433 -0.100791 0.154365)
4.65          (0.242162 -0.108276 0.162284)
4.66          (0.233266 -0.113467 0.170172)
4.67          (0.223432 -0.106997 0.178214)
4.68          (0.217299 -0.0989649 0.185516)
4.69          (0.214827 -0.115537 0.2039)
4.7           (0.202656 -0.1139 0.211235)
4.71          (0.176261 -0.0774709 0.217521)
4.72          (0.166977 -0.0687838 0.223171)
4.73          (0.146599 -0.10579 0.229518)
4.74          (0.139143 -0.0936861 0.234576)
4.75          (0.13082 -0.0827708 0.239554)
4.76          (0.134568 -0.0915182 0.244279)
4.77          (0.1343 -0.0879466 0.247596)
4.78          (0.133532 -0.101757 0.251084)
4.79          (0.130975 -0.100861 0.253712)
4.8           (0.141691 -0.101367 0.255961)
4.81          (0.149164 -0.100227 0.257878)
4.82          (0.15265 -0.101703 0.258798)
4.83          (0.155487 -0.107028 0.259224)
4.84          (0.160197 -0.105915 0.259059)
4.85          (0.167376 -0.0997873 0.258398)
4.86          (0.177778 -0.129127 0.256881)
4.87          (0.180686 -0.129922 0.254291)
4.88          (0.186022 -0.139334 0.25078)
4.89          (0.186358 -0.175605 0.249417)
4.9           (0.186078 -0.18253 0.244586)
4.91          (0.190504 -0.149039 0.245523)
4.92          (0.18978 -0.159694 0.239073)
4.93          (0.194222 -0.167016 0.23239)
4.94          (0.19163 -0.175472 0.224875)
4.95          (0.188025 -0.181067 0.216464)
4.96          (0.185697 -0.184096 0.208298)
4.97          (0.183374 -0.189501 0.200993)
4.98          (0.18005 -0.183509 0.193327)
4.99          (0.181145 -0.19735 0.1853)
5             (0.179366 -0.197676 0.177603)
5.01          (0.179407 -0.207366 0.169849)
5.02          (0.174976 -0.204587 0.163611)
5.03          (0.180827 -0.210856 0.157464)
5.04          (0.181122 -0.214528 0.151513)
5.05          (0.188806 -0.229229 0.146633)
5.06          (0.190198 -0.245728 0.141418)
5.07          (0.18963 -0.249237 0.136473)
5.08          (0.187607 -0.280257 0.132035)
5.09          (0.175005 -0.26091 0.128429)
5.1           (0.158425 -0.2957 0.115891)
5.11          (0.158368 -0.312262 0.11355)
5.12          (0.1621 -0.349828 0.111109)
5.13          (0.162465 -0.373148 0.109672)
5.14          (0.164892 -0.421069 0.108713)
5.15          (0.173095 -0.448562 0.10806)
5.16          (0.170328 -0.453506 0.108249)
5.17          (0.169993 -0.443401 0.10881)
5.18          (0.170427 -0.452015 0.109174)
5.19          (0.173998 -0.455889 0.109345)
5.2           (0.174633 -0.465531 0.109504)
5.21          (0.178308 -0.48346 0.110207)
5.22          (0.181962 -0.479041 0.109837)
5.23          (0.186699 -0.486156 0.108703)
5.24          (0.194508 -0.490856 0.106885)
5.25          (0.214651 -0.531514 0.103886)
5.26          (0.224385 -0.568369 0.0961776)
5.27          (0.24678 -0.592724 0.090504)
5.28          (0.265315 -0.600319 0.0845102)
5.29          (0.290728 -0.602018 0.07732)
5.3           (0.303654 -0.550042 0.0577148)
5.31          (0.325765 -0.535802 0.0492883)
5.32          (0.351734 -0.593723 0.0397342)
5.33          (0.384721 -0.571928 0.0321011)
5.34          (0.437541 -0.598147 0.0235258)
5.35          (0.476594 -0.576045 0.0164783)
5.36          (0.505956 -0.563693 0.0102506)
5.37          (0.541968 -0.541289 0.00513176)
5.38          (0.580755 -0.505849 0.00168283)
5.39          (0.615188 -0.492619 -0.0020359)
5.4           (0.651772 -0.461398 -0.00451892)
5.41          (0.680288 -0.446327 -0.00558817)
5.42          (0.710653 -0.416994 -0.00523484)
5.43          (0.73821 -0.398466 -0.00370465)
5.44          (0.755222 -0.36978 -0.000902819)
5.45          (0.775571 -0.337964 0.00261985)
5.46          (0.792441 -0.327376 0.00301443)
5.47          (0.795764 -0.301261 0.00825102)
5.48          (0.803988 -0.28537 0.013944)
5.49          (0.802905 -0.269649 0.0195673)
5.5           (0.819946 -0.301106 0.0258681)
5.51          (0.831267 -0.310988 0.0229083)
5.52          (0.829065 -0.285889 0.028918)
5.53          (0.815666 -0.246265 0.036576)
5.54          (0.799346 -0.189261 0.0413188)
5.55          (0.788433 -0.121857 0.0458325)
5.56          (0.770818 -0.0951166 0.0511708)
5.57          (0.760068 -0.0699244 0.0533049)
5.58          (0.744552 -0.0467608 0.0526382)
5.59          (0.727745 -0.027461 0.0529048)
5.6           (0.713111 -0.0180057 0.0522869)
5.61          (0.699632 0.00647117 0.0512321)
5.62          (0.68667 0.016015 0.0496746)
5.63          (0.674745 0.0194001 0.0475166)
5.64          (0.663172 0.026764 0.0443403)
5.65          (0.651548 0.0369236 0.0413921)
5.66          (0.644684 0.0443778 0.0396644)
5.67          (0.623391 0.0225804 0.0338519)
5.68          (0.61328 0.0178689 0.0310896)
5.69          (0.603933 0.0192766 0.0275019)
5.7           (0.596586 0.0238983 0.0238984)
5.71          (0.606578 0.062841 0.0326815)
5.72          (0.597313 0.077339 0.0313279)
5.73          (0.582224 0.0473343 0.0241767)
5.74          (0.573587 0.0594883 0.0233185)
5.75          (0.574888 0.0229955 0.02249)
5.76          (0.571774 0.0342267 0.022729)
5.77          (0.563596 0.0368395 0.0236852)
5.78          (0.558674 0.0433006 0.0247122)
5.79          (0.541452 0.0872388 0.0266531)
5.8           (0.535937 0.0960593 0.0292493)
5.81          (0.536055 0.110349 0.032392)
5.82          (0.527763 0.114263 0.0366138)
5.83          (0.526883 0.136498 0.0408789)
5.84          (0.522985 0.149043 0.0460263)
5.85          (0.518769 0.153583 0.0515873)
5.86          (0.514108 0.166299 0.0575839)
5.87          (0.51283 0.145705 0.064481)
5.88          (0.507493 0.166855 0.0702966)
5.89          (0.504484 0.169915 0.0765018)
5.9           (0.501543 0.175968 0.0817926)
5.91          (0.501278 0.164735 0.0905864)
5.92          (0.523818 0.111285 0.098069)
5.93          (0.522418 0.11866 0.10393)
5.94          (0.530368 0.114195 0.108897)
5.95          (0.540314 0.0892717 0.114409)
5.96          (0.537489 0.100731 0.115183)
5.97          (0.526323 0.131164 0.118622)
5.98          (0.521094 0.137494 0.121948)
5.99          (0.523561 0.140318 0.125536)
6             (0.520945 0.141979 0.127642)
6.01          (0.517487 0.156565 0.129944)
6.02          (0.515429 0.164655 0.132907)
6.03          (0.514393 0.169246 0.135273)
6.04          (0.516937 0.179464 0.137408)
6.05          (0.516261 0.185315 0.139894)
6.06          (0.518357 0.190179 0.143363)
6.07          (0.510971 0.212907 0.146431)
6.08          (0.50965 0.232039 0.153142)
6.09          (0.509065 0.243401 0.156878)
6.1           (0.511855 0.249126 0.16131)
6.11          (0.519313 0.243462 0.165863)
6.12          (0.511697 0.240727 0.172125)
6.13          (0.518049 0.239014 0.17661)
6.14          (0.509492 0.257134 0.176954)
6.15          (0.51538 0.251354 0.181794)
6.16          (0.532066 0.226709 0.18718)
6.17          (0.534051 0.225258 0.192273)
6.18          (0.534991 0.246242 0.196662)
6.19          (0.538286 0.237847 0.200966)
6.2           (0.541481 0.231735 0.20608)
6.21          (0.544446 0.213342 0.209858)
6.22          (0.5472 0.204859 0.214018)
6.23          (0.554582 0.20907 0.218216)
6.24          (0.555608 0.205968 0.221333)
6.25          (0.558972 0.194744 0.223384)
6.26          (0.561041 0.19524 0.225718)
6.27          (0.565164 0.186845 0.226213)
6.28          (0.580157 0.237609 0.220674)
6.29          (0.583155 0.227482 0.218714)
6.3           (0.584368 0.229072 0.215932)
6.31          (0.589857 0.211008 0.211241)
6.32          (0.583545 0.226487 0.206022)
6.33          (0.580223 0.235568 0.205728)
6.34          (0.585087 0.216517 0.19915)
6.35          (0.590598 0.187259 0.188287)
6.36          (0.590558 0.16583 0.178815)
6.37          (0.603603 0.123068 0.166041)
6.38          (0.612099 0.0888814 0.151728)
6.39          (0.609624 0.076758 0.135193)
6.4           (0.616623 0.0501774 0.114177)
6.41          (0.612182 0.0262358 0.095474)
6.42          (0.610929 -0.000531056 0.0749462)
6.43          (0.611872 -0.0330427 0.0527243)
6.44          (0.609254 -0.0503037 0.0302741)
6.45          (0.610476 -0.0735315 0.00772056)
6.46          (0.607083 -0.0882794 -0.0151396)
6.47          (0.604887 -0.105623 -0.0382668)
6.48          (0.603688 -0.116199 -0.0598481)
6.49          (0.596032 -0.120431 -0.0814708)
6.5           (0.591622 -0.107243 -0.100519)
6.51          (0.59395 -0.119592 -0.118259)
6.52          (0.594665 -0.126815 -0.134728)
6.53          (0.563987 -0.158264 -0.144298)
6.54          (0.572718 -0.163657 -0.157743)
6.55          (0.587701 -0.202956 -0.16685)
6.56          (0.594253 -0.204786 -0.177262)
6.57          (0.602901 -0.203781 -0.186865)
6.58          (0.617248 -0.212123 -0.192991)
6.59          (0.636451 -0.188957 -0.197549)
6.6           (0.651855 -0.198995 -0.199365)
6.61          (0.652934 -0.169528 -0.198727)
6.62          (0.663202 -0.169143 -0.196505)
6.63          (0.67148 -0.16488 -0.1912)
6.64          (0.680269 -0.163891 -0.183376)
6.65          (0.686741 -0.157468 -0.173722)
6.66          (0.695055 -0.157294 -0.162452)
6.67          (0.702782 -0.150061 -0.150292)
6.68          (0.704854 -0.143709 -0.136862)
6.69          (0.69869 -0.14301 -0.126801)
6.7           (0.702672 -0.140178 -0.112939)