# Probe 0 (-1.5 0 0)
# Probe 1 (-1.5 2 0)
# Probe 2 (-1.5 -2 0)
# Time        0             1             2            
0.01          (0.916041 -0.00112031 -8.6094e-05) (1.03709 0.0287753 -0.000707013) (1.04575 -0.0241266 -0.000533917)
0.02          (0.879509 -0.00631712 -1.52566e-05) (1.05573 0.0413275 -0.000683647) (1.06325 -0.0351149 -0.000574403)
0.03          (0.888252 -0.00566415 -7.11108e-06) (1.05323 0.034996 -2.36766e-05) (1.05843 -0.0304158 8.7731e-05)
0.04          (0.895761 -0.00235252 0.000158094) (1.04949 0.0308413 0.000500839) (1.05458 -0.0274696 0.000393376)
0.05          (0.900804 -0.00349118 5.59523e-05) (1.05014 0.0288289 0.000100716) (1.05191 -0.0277071 -0.000116436)
0.06          (0.903289 -0.00330367 0.00022542) (1.04991 0.0271569 0.000386207) (1.05337 -0.0260992 -6.77491e-05)
0.07          (0.9035 -0.00301714 0.000209762) (1.05002 0.025955 0.000353977) (1.05287 -0.0259963 0.000104272)
0.08          (0.906031 -0.00340161 0.000322347) (1.04758 0.0289429 0.000288522) (1.04978 -0.0283442 0.000432031)
0.09          (0.905803 -0.00315717 0.000179181) (1.04675 0.0290554 0.000380368) (1.05138 -0.0267184 0.000582618)
0.1           (0.906201 -0.00524401 -0.000222047) (1.04824 0.0279806 8.48879e-07) (1.04953 -0.02741 0.000124481)
0.11          (0.908417 -0.00619316 -4.51085e-05) (1.04845 0.0278014 0.000103637) (1.04756 -0.0280502 -0.000266092)
0.12          (0.910169 -0.00739127 -0.000105024) (1.04936 0.0275922 0.000264916) (1.04437 -0.0297164 2.69611e-05)
0.13          (0.909872 -0.00497272 -0.000147225) (1.04565 0.0297362 0.000201352) (1.04783 -0.0280998 0.000107007)
0.14          (0.910688 -0.00891114 0.000182327) (1.04887 0.0284696 0.000226346) (1.04395 -0.029153 6.17798e-05)
0.15          (0.909673 -0.00586754 8.79942e-05) (1.04728 0.0279511 -6.66675e-05) (1.04694 -0.0268153 -5.12262e-05)
0.16          (0.908902 -0.00369258 0.000213117) (1.04675 0.0266321 0.000526438) (1.0489 -0.0265252 -0.000186798)
0.17          (0.908421 -0.009295 -2.4113e-05) (1.05221 0.0244145 0.000297866) (1.04378 -0.0285736 0.000462074)
0.18          (0.907958 -0.00733495 -0.00024273) (1.05021 0.0253318 0.00029758) (1.04656 -0.0271433 5.21404e-05)
0.19          (0.913021 -0.00290382 0.00013255) (1.04308 0.029438 0.000159007) (1.04623 -0.0282791 -6.06163e-05)
0.2           (0.912871 -0.00333556 -4.36672e-05) (1.04262 0.0300854 0.000406609) (1.04662 -0.0275639 0.000297368)
0.21          (0.912302 -0.00695957 0.000219532) (1.04562 0.0287504 0.000265628) (1.04415 -0.0288647 0.000580657)
0.22          (0.914698 -0.00376531 0.000305979) (1.0424 0.0304979 3.93305e-05) (1.04383 -0.0295258 0.00033492)
0.23          (0.912578 -0.003568 0.000248336) (1.04457 0.0283774 0.000183094) (1.04527 -0.0284646 0.000207142)
0.24          (0.914515 -0.00532964 0.000133123) (1.04399 0.0292401 -5.26888e-05) (1.04279 -0.0300099 -5.6492e-05)
0.25          (0.913202 -0.00533788 8.32648e-06) (1.04433 0.0284398 0.000278134) (1.04505 -0.0273987 -0.000664299)
0.26          (0.913396 -0.00117755 0.000139339) (1.04098 0.0290254 0.000769942) (1.04807 -0.0266741 -0.00104292)
0.27          (0.91498 -0.00396145 0.000178864) (1.04122 0.0294163 0.000109216) (1.04529 -0.0279882 -0.000387956)
0.28          (0.916757 0.000124206 0.000168027) (1.03661 0.0314246 0.000231487) (1.04698 -0.0280774 0.00019774)
0.29          (0.914913 -0.000992579 0.000132055) (1.03833 0.0305019 0.00018422) (1.04813 -0.0268652 -1.40353e-05)
0.3           (0.914639 -0.000208272 0.000286735) (1.03882 0.0295024 2.80336e-05) (1.04859 -0.0268106 0.000431828)
0.31          (0.9154 -0.00320519 0.000383245) (1.04185 0.0278897 0.000465993) (1.04559 -0.0270075 0.000293825)
0.32          (0.914455 -0.0077329 0.000425882) (1.04467 0.0281551 0.000541599) (1.04302 -0.0270653 0.000442972)
0.33          (0.917809 -0.00726679 0.00045673) (1.04189 0.0305 0.000218274) (1.04031 -0.0297981 0.000579335)
0.34          (0.918415 -0.00804297 0.000361052) (1.04219 0.0303951 0.000324008) (1.03869 -0.0309662 0.000927753)
0.35          (0.917446 -0.0115859 0.000488312) (1.04449 0.0301729 0.000430433) (1.03623 -0.0321053 0.000431413)
0.36          (0.916265 -0.00764912 0.000274869) (1.04321 0.029428 0.000360914) (1.04051 -0.0297353 0.000605231)
0.37          (0.917564 -0.00746 0.000112142) (1.04221 0.0304383 0.000103618) (1.04022 -0.0299434 0.000277259)
0.38          (0.916996 -0.0050243 0.000321131) (1.04145 0.0300435 0.000297822) (1.04196 -0.0293855 0.000437821)
0.39          (0.918164 -0.00473391 0.00035955) (1.03959 0.0314126 0.000241773) (1.04188 -0.0292378 0.000333242)
0.4           (0.917927 -0.00543565 0.000348337) (1.04081 0.0304793 0.000166783) (1.04097 -0.0300335 6.00048e-05)
0.41          (0.918189 -0.0090496 0.000296439) (1.04314 0.0299509 0.000169916) (1.03807 -0.0312993 0.000623714)
0.42          (0.920183 -0.00757048 0.000469403) (1.0386 0.0331848 7.83112e-05) (1.03923 -0.0306691 0.000377799)
0.43          (0.919337 -0.00545994 0.000311926) (1.0386 0.0320072 0.00018244) (1.04026 -0.0306244 -0.000231071)
0.44          (0.919321 -0.00381145 0.000410531) (1.03669 0.032806 -0.000454875) (1.04261 -0.0296864 0.000199214)
0.45          (0.920403 -0.00105327 0.00025506) (1.03344 0.0344823 -4.03647e-05) (1.04329 -0.030545 -0.000306543)
0.46          (0.91932 -0.00384197 0.000544455) (1.03656 0.032302 0.000401185) (1.04195 -0.0301773 -0.000295467)
0.47          (0.920395 -0.000768511 0.000534318) (1.03476 0.0320997 0.000459524) (1.04364 -0.0291014 -0.000186191)
0.48          (0.921565 -0.00642515 0.000607227) (1.03849 0.0309656 8.5676e-06) (1.03809 -0.031656 -0.000161198)
0.49          (0.919759 -0.00768979 0.000741857) (1.04037 0.0304663 0.000150399) (1.03809 -0.0312266 -0.000244107)
0.5           (0.91901 -0.00995705 0.000614594) (1.04299 0.029863 0.00020915) (1.03664 -0.0314866 -0.000228736)
0.51          (0.922199 -0.00990672 0.000612236) (1.04029 0.0317238 0.000126274) (1.03462 -0.0332921 -3.06659e-05)
0.52          (0.922295 -0.00932228 0.0008491) (1.03867 0.0326515 0.000275259) (1.03603 -0.0324877 -0.000293899)
0.53          (0.9212 -0.00907039 0.000930659) (1.0403 0.0308631 0.000548901) (1.03622 -0.032209 -0.000836728)
0.54          (0.920193 -0.0030628 0.000891307) (1.03705 0.0312173 9.13265e-05) (1.04066 -0.0308655 -0.00142722)
0.55          (0.92207 -0.0054887 0.000494893) (1.03533 0.0332579 -7.37739e-05) (1.03849 -0.0324031 -0.000866324)
0.56          (0.922128 -0.00621905 0.00051402) (1.03608 0.0325335 -0.000383812) (1.03815 -0.0324515 -0.000884662)
0.57          (0.922493 -0.00555627 0.000553942) (1.03495 0.0331328 0.000145356) (1.03865 -0.0321699 -0.00148251)
0.58          (0.923601 -0.00895882 0.000748086) (1.03592 0.0343643 -0.000163385) (1.03533 -0.0336519 -0.001504)
0.59          (0.924662 -0.00119003 0.000658581) (1.02822 0.0377114 -0.000443169) (1.04131 -0.0323787 -0.000765401)
0.6           (0.92376 -0.00155801 0.000578669) (1.02832 0.0377539 -0.000195028) (1.04309 -0.0303223 -0.00135229)
0.61          (0.924265 -0.00593484 0.000709045) (1.03339 0.0353423 0.0002658) (1.03772 -0.032849 -0.00137554)
0.62          (0.926524 -0.00674041 0.000667285) (1.03052 0.0380109 0.000259298) (1.0375 -0.0320852 -0.00140379)
0.63          (0.926785 -0.00277494 0.000860474) (1.02753 0.0384245 0.000341548) (1.03974 -0.0325124 -0.0014093)
0.64          (0.928923 -0.00266358 0.000800838) (1.0264 0.0377773 0.000193528) (1.03885 -0.0332371 -0.00153318)
0.65          (0.926643 -0.00159335 0.000652971) (1.02731 0.0364942 0.000363051) (1.04139 -0.0320471 -0.00160392)
0.66          (0.924861 -0.00389505 0.000817246) (1.03084 0.0344486 0.00029586) (1.04007 -0.0326179 -0.00179097)
0.67          (0.923899 -0.00824705 0.00108551) (1.03572 0.0314067 0.000289664) (1.03752 -0.0332137 -0.00193161)
0.68          (0.923063 -0.0101724 0.00085912) (1.03894 0.028669 0.000160907) (1.0362 -0.0339958 -0.00230927)
0.69          (0.92486 -0.0103443 0.000880487) (1.03515 0.0323824 0.00020703) (1.03743 -0.0327228 -0.00232294)
0.7           (0.925211 -0.0102536 0.000952017) (1.03439 0.0326877 0.000134155) (1.03794 -0.0329608 -0.00236314)
0.71          (0.927678 -0.00622432 0.00102766) (1.02948 0.0351243 0.000470824) (1.03862 -0.0345497 -0.00238312)
0.72          (0.928158 -0.00264464 0.00121793) (1.02591 0.0362436 0.00028537) (1.04223 -0.0332566 -0.00230805)
0.73          (0.927917 -0.00554868 0.00150963) (1.02812 0.0350022 0.000513262) (1.04215 -0.0322767 -0.00250615)
0.74          (0.92723 -0.00936871 0.00112747) (1.03184 0.0332488 5.7486e-05) (1.03971 -0.0335525 -0.0027039)
0.75          (0.926452 -0.0100544 0.00126721) (1.03279 0.0325305 9.61032e-05) (1.04042 -0.0330947 -0.00328)
0.76          (0.926716 -0.0078973 0.00159686) (1.03057 0.0327667 -0.00011161) (1.04282 -0.0321758 -0.00323677)
0.77          (0.927971 -0.00834799 0.00162118) (1.02858 0.0338553 -0.000254721) (1.04356 -0.0319939 -0.00239787)
0.78          (0.928164 -0.00721283 0.00185664) (1.02621 0.0345673 -0.000637497) (1.04685 -0.0302399 -0.00217617)
0.79          (0.931133 -0.00487137 0.00210104) (1.02168 0.0370752 -0.000706517) (1.04723 -0.0314116 -0.00270461)
0.8           (0.932762 -0.00416163 0.0022183) (1.02102 0.0369431 -0.00030022) (1.04742 -0.0319597 -0.00256041)
0.81          (0.928988 -0.0069264 0.00225216) (1.0262 0.0338254 -0.000845547) (1.0473 -0.0319897 -0.00294285)
0.82          (0.929936 -0.0125416 0.00239959) (1.02894 0.0336159 -0.000827457) (1.04395 -0.0333357 -0.00300696)
0.83          (0.929212 -0.0109961 0.00285298) (1.02775 0.034095 -0.00101311) (1.04809 -0.0308021 -0.00345831)
0.84          (0.929648 -0.0101338 0.00307929) (1.02661 0.0346709 -0.00159562) (1.04957 -0.0305517 -0.00358722)
0.85          (0.932348 -0.0117808 0.00317725) (1.02553 0.0353698 -0.00197084) (1.04727 -0.0333275 -0.00384736)
0.86          (0.933031 -0.00910322 0.00352722) (1.02205 0.0365203 -0.00200329) (1.05074 -0.0319363 -0.00376561)
0.87          (0.932596 -0.0121755 0.0037534) (1.02361 0.0364467 -0.0023906) (1.05068 -0.0312404 -0.00349979)
0.88          (0.931187 -0.0125172 0.00387837) (1.0264 0.0340718 -0.00253758) (1.05224 -0.0305473 -0.00318804)
0.89          (0.930444 -0.0138318 0.00429133) (1.02865 0.0330431 -0.00335878) (1.05214 -0.0305268 -0.00286874)
0.9           (0.931491 -0.0122148 0.00460494) (1.02645 0.0333879 -0.00363686) (1.05466 -0.0301367 -0.00265935)
0.91          (0.933868 -0.0149595 0.00480671) (1.02847 0.0318822 -0.00411118) (1.05161 -0.0319459 -0.00243074)
0.92          (0.933945 -0.0132425 0.00498586) (1.0275 0.0317496 -0.00455826) (1.05506 -0.0302729 -0.00237509)
0.93          (0.93395 -0.0150795 0.00512839) (1.02817 0.0316962 -0.00510213) (1.05617 -0.0285961 -0.00233884)
0.94          (0.934347 -0.0146305 0.00547353) (1.02785 0.0323727 -0.00590203) (1.05693 -0.0287669 -0.00223007)
0.95          (0.934197 -0.0101981 0.00532015) (1.02271 0.0345225 -0.0068669) (1.0637 -0.0250952 -0.0021706)
0.96          (0.935117 -0.0102898 0.00549921) (1.02273 0.0343076 -0.00723202) (1.06422 -0.0256132 -0.00233063)
0.97          (0.93496 -0.0117124 0.00576336) (1.02502 0.032695 -0.00754399) (1.06509 -0.0245941 -0.00129878)
0.98          (0.937563 -0.0120431 0.00571698) (1.02512 0.0326076 -0.00840906) (1.06321 -0.0263052 -0.000231534)
0.99          (0.937215 -0.01012 0.00580759) (1.02396 0.0329656 -0.00941509) (1.06633 -0.0247049 -0.000360023)
1             (0.939648 -0.00820027 0.00594235) (1.02209 0.0339114 -0.0101882) (1.06594 -0.0259968 -0.000354895)
1.01          (0.939346 -0.00921229 0.00605359) (1.02458 0.0331025 -0.0107273) (1.06602 -0.0251259 0.000164825)
1.02          (0.938235 -0.00887987 0.00611623) (1.02587 0.032785 -0.0113641) (1.06742 -0.0240971 0.000915141)
1.03          (0.937561 -0.00965972 0.0060296) (1.02953 0.0304664 -0.0120351) (1.06659 -0.024198 0.000823722)
1.04          (0.938988 -0.010327 0.00572358) (1.03102 0.0295747 -0.0130245) (1.06477 -0.025247 0.00103524)
1.05          (0.939792 -0.00620422 0.00536314) (1.02753 0.0321107 -0.0137829) (1.06731 -0.0248455 0.00141089)
1.06          (0.939632 -0.00833041 0.00509037) (1.0307 0.0309349 -0.01456) (1.06636 -0.0233992 0.00213181)
1.07          (0.936305 -0.0127217 0.00500071) (1.03872 0.0263761 -0.0156872) (1.06507 -0.0221888 0.0025827)
1.08          (0.937877 -0.0101719 0.00496322) (1.03644 0.0287983 -0.0161879) (1.06536 -0.0228914 0.003265)
1.09          (0.938152 -0.011 0.00475992) (1.03953 0.0268762 -0.0172107) (1.06367 -0.0234212 0.0036957)
1.1           (0.938433 -0.00782496 0.00412934) (1.03763 0.0283965 -0.0181164) (1.06565 -0.0214462 0.00411574)
1.11          (0.938789 -0.00313561 0.00378284) (1.03424 0.0307452 -0.0189562) (1.06846 -0.0204928 0.00459042)
1.12          (0.93776 -0.00331986 0.00348535) (1.03586 0.0310734 -0.0190569) (1.06918 -0.018999 0.00514121)
1.13          (0.937683 -0.00351119 0.00319093) (1.03774 0.0315768 -0.0194444) (1.06773 -0.0187335 0.00532913)
1.14          (0.938055 -0.000542327 0.00237354) (1.03907 0.0303626 -0.0201603) (1.0666 -0.0190714 0.00599089)
1.15          (0.937023 0.00247601 0.00176328) (1.03906 0.0305721 -0.0206961) (1.06801 -0.0186398 0.00639872)
1.16          (0.937288 0.00236729 0.0013771) (1.04109 0.0311553 -0.0212817) (1.06585 -0.0191321 0.00668635)
1.17          (0.935751 0.00320851 0.000815932) (1.04179 0.0322568 -0.0219698) (1.06602 -0.0185528 0.00700304)
1.18          (0.937017 0.00639202 -0.00011696) (1.04141 0.0325316 -0.0215013) (1.06635 -0.0175571 0.00699188)
1.19          (0.935825 0.00540092 -0.000392875) (1.04531 0.0317177 -0.0218166) (1.06318 -0.0187409 0.00807299)
1.2           (0.935418 0.00580952 -0.00111974) (1.04869 0.030894 -0.0222198) (1.05972 -0.0207957 0.00888446)
1.21          (0.935221 0.00909433 -0.00164705) (1.04825 0.0317714 -0.0222472) (1.06025 -0.0203497 0.00920685)
1.22          (0.934416 0.0130726 -0.00224538) (1.04593 0.0337508 -0.0218628) (1.06316 -0.0181615 0.00890125)
1.23          (0.93311 0.0075991 -0.0029035) (1.05446 0.0299715 -0.0219525) (1.05655 -0.0203313 0.00906133)
1.24          (0.934196 0.0105053 -0.00346735) (1.05331 0.0317541 -0.0216481) (1.05694 -0.0194671 0.00996943)
1.25          (0.931805 0.010906 -0.00408401) (1.05631 0.0311806 -0.020915) (1.05583 -0.0194117 0.010354)
1.26          (0.930326 0.00791307 -0.00436342) (1.06262 0.029082 -0.0205356) (1.05171 -0.0200884 0.0111299)
1.27          (0.931379 0.00677543 -0.00472021) (1.06602 0.0284207 -0.0203575) (1.04613 -0.0236987 0.0114765)
1.28          (0.93063 0.00962299 -0.00521063) (1.06509 0.0291245 -0.0198287) (1.04763 -0.0221043 0.0114532)
1.29          (0.930151 0.0136629 -0.00543053) (1.06327 0.0307349 -0.0182933) (1.04948 -0.0211558 0.0118124)
1.3           (0.930101 0.0144232 -0.00585886) (1.06367 0.0314935 -0.0178682) (1.04764 -0.0224884 0.0122061)
1.31          (0.929492 0.0164046 -0.00631144) (1.06494 0.0309985 -0.0164062) (1.04606 -0.023983 0.0127162)
1.32          (0.929571 0.0159495 -0.00644557) (1.06717 0.0312152 -0.0150022) (1.04296 -0.0250303 0.012702)
1.33          (0.928449 0.0142284 -0.00644401) (1.0707 0.0301642 -0.0137514) (1.04091 -0.0248901 0.0128851)
1.34          (0.929849 0.0162251 -0.00639868) (1.06951 0.031603 -0.0123786) (1.03902 -0.0268395 0.013751)
1.35          (0.929056 0.0150417 -0.0061512) (1.07263 0.0299199 -0.0107599) (1.03712 -0.0269072 0.014205)
1.36          (0.928007 0.0128679 -0.00633473) (1.07724 0.0271892 -0.00892137) (1.03372 -0.028366 0.0137176)
1.37          (0.928384 0.0129397 -0.00621616) (1.0771 0.0278439 -0.00756285) (1.03256 -0.0290424 0.0137299)
1.38          (0.928133 0.0131064 -0.00614861) (1.07655 0.0287232 -0.00637362) (1.03156 -0.0296101 0.0140131)
1.39          (0.925896 0.0151323 -0.00581945) (1.07603 0.0285677 -0.00429371) (1.03432 -0.0281377 0.014474)
1.4           (0.923746 0.0183581 -0.00553485) (1.07534 0.0281774 -0.00228901) (1.03749 -0.0261512 0.0144796)
1.41          (0.924868 0.0161831 -0.00500963) (1.07679 0.0272702 -0.000175489) (1.0334 -0.0274211 0.0137569)
1.42          (0.926118 0.0112065 -0.00451157) (1.07843 0.0276058 0.00169073) (1.02859 -0.0295171 0.0138667)
1.43          (0.923597 0.00875121 -0.00416675) (1.0816 0.0258149 0.00358876) (1.02777 -0.0294656 0.0132838)
1.44          (0.92371 0.00962579 -0.00357671) (1.0815 0.0246352 0.00581995) (1.02646 -0.0305923 0.0130081)
1.45          (0.924011 0.0102848 -0.00304322) (1.08075 0.0241583 0.00767461) (1.02548 -0.0314656 0.012956)
1.46          (0.922926 0.0080678 -0.00208252) (1.08092 0.0237471 0.0098) (1.02601 -0.0298216 0.0130214)
1.47          (0.920906 0.00728269 -0.00162686) (1.08089 0.0226884 0.0113514) (1.02694 -0.0283807 0.0122199)
1.48          (0.918159 0.00336613 -0.000783536) (1.0857 0.0189947 0.0129781) (1.02465 -0.028397 0.0123995)
1.49          (0.920817 0.00558839 6.65283e-05) (1.07987 0.0206327 0.0150333) (1.02641 -0.0271819 0.0121199)
1.5           (0.919519 0.00185181 0.000655874) (1.0828 0.0178796 0.0169173) (1.02353 -0.0281445 0.0114823)
1.51          (0.919578 7.29595e-05 0.00126373) (1.08225 0.0167423 0.0187677) (1.02246 -0.0282378 0.0110543)
1.52          (0.920919 0.000160893 0.00213224) (1.08079 0.0156432 0.0204292) (1.0204 -0.029564 0.0103615)
1.53          (0.919135 -0.00190033 0.00278773) (1.08088 0.0138189 0.0221555) (1.0219 -0.0268309 0.00969006)
1.54          (0.917996 -0.00397507 0.00361795) (1.08023 0.0136098 0.0233144) (1.02227 -0.0260585 0.00883281)
1.55          (0.917584 -0.00513366 0.00398659) (1.07746 0.0140869 0.0244851) (1.02352 -0.0246419 0.0083601)
1.56          (0.918121 -0.00718067 0.00478651) (1.07637 0.0137086 0.0259623) (1.02288 -0.0227575 0.00761333)
1.57          (0.915826 -0.00967325 0.00520103) (1.07774 0.0111235 0.0273418) (1.02343 -0.0205192 0.00735989)
1.58          (0.916764 -0.011039 0.00553168) (1.07503 0.0117547 0.0275122) (1.02178 -0.0214344 0.00597162)
1.59          (0.917861 -0.0105168 0.006106) (1.07093 0.0125157 0.0282608) (1.02311 -0.0196595 0.00488104)
1.6           (0.915562 -0.0140561 0.00627727) (1.0725 0.0103006 0.0291358) (1.02256 -0.0187068 0.00382178)
1.61          (0.91296 -0.0174657 0.00632347) (1.07409 0.00851353 0.0297162) (1.02219 -0.017257 0.00322462)
1.62          (0.915382 -0.0164977 0.00654351) (1.06998 0.00877574 0.0300371) (1.02274 -0.0160311 0.00233702)
1.63          (0.917282 -0.0141731 0.00654095) (1.06378 0.0107905 0.0303632) (1.02484 -0.0143285 0.00156555)
1.64          (0.914698 -0.0148199 0.00643065) (1.06342 0.00917548 0.0306282) (1.02753 -0.0112103 0.00108599)
1.65          (0.915085 -0.0179716 0.00621662) (1.06377 0.00852453 0.0307854) (1.02571 -0.0102665 2.1864e-05)
1.66          (0.915871 -0.0186819 0.00577963) (1.06139 0.00903914 0.0298493) (1.0243 -0.0105679 -0.000978411)
1.67          (0.915823 -0.0152212 0.00551416) (1.05732 0.00901677 0.0300893) (1.02708 -0.00927569 -0.00208588)
1.68          (0.915628 -0.0158005 0.0052432) (1.05653 0.00798038 0.0297443) (1.02751 -0.00795408 -0.0029351)
1.69          (0.915028 -0.0154354 0.00463659) (1.05399 0.00802467 0.0283444) (1.03016 -0.00514132 -0.00350039)
1.7           (0.915767 -0.00921357 0.00402734) (1.04683 0.00999739 0.0282464) (1.0356 -0.00218206 -0.00439015)
1.71          (0.91569 -0.0153547 0.00375159) (1.05018 0.00868743 0.0282816) (1.0307 -0.00319814 -0.00541612)
1.72          (0.915087 -0.0192232 0.00303218) (1.05312 0.00709832 0.0273494) (1.027 -0.00321331 -0.00635896)
1.73          (0.916848 -0.0180566 0.00207897) (1.04979 0.0080757 0.0263222) (1.02705 -0.00264257 -0.00697714)
1.74          (0.918261 -0.0180502 0.00110054) (1.04606 0.0104435 0.024825) (1.02734 -0.0017691 -0.00727182)
1.75          (0.91512 -0.0155237 0.00031545) (1.04404 0.0112235 0.0239759) (1.03255 0.00169733 -0.00801987)
1.76          (0.915739 -0.0149512 -0.000888134) (1.04216 0.0127605 0.0232598) (1.03058 0.00057444 -0.00898407)
1.77          (0.916735 -0.0148149 -0.00190518) (1.04215 0.0118677 0.0221839) (1.02898 0.000518066 -0.00941649)
1.78          (0.917305 -0.0157801 -0.00253236) (1.04101 0.0128557 0.0203993) (1.02702 -0.000477894 -0.00974165)
1.79          (0.919708 -0.0118431 -0.00389309) (1.03597 0.0147697 0.0196632) (1.02835 6.70035e-05 -0.0101001)
1.8           (0.918953 -0.00975885 -0.00469742) (1.03372 0.0164011 0.0186537) (1.02957 0.000376471 -0.0107337)
1.81          (0.918821 -0.00995039 -0.00549883) (1.03262 0.0176029 0.0172257) (1.02898 0.000258873 -0.0111056)
1.82          (0.919627 -0.00753906 -0.00680103) (1.03094 0.0177011 0.0159712) (1.02895 -0.000615241 -0.0111973)
1.83          (0.918047 -0.00777791 -0.00751899) (1.03159 0.0176661 0.0148394) (1.02854 -0.00110415 -0.0111909)
1.84          (0.918303 -0.0060237 -0.008467) (1.02787 0.0206256 0.0134884) (1.02938 -0.00103868 -0.0114713)
1.85          (0.919133 -0.00169436 -0.00940998) (1.02409 0.0224563 0.0118805) (1.02994 -0.00203379 -0.0109909)
1.86          (0.920426 -0.00128605 -0.0100774) (1.02297 0.0227395 0.0108401) (1.02795 -0.00383807 -0.0114701)
1.87          (0.91985 0.00252804 -0.0107923) (1.0189 0.0246043 0.0101195) (1.03085 -0.00362551 -0.01145)
1.88          (0.920339 0.00150001 -0.0114744) (1.01961 0.024701 0.00866927) (1.02828 -0.00527125 -0.0108984)
1.89          (0.919627 0.00146847 -0.0124514) (1.02 0.0252726 0.00782563) (1.02677 -0.00724346 -0.0104788)
1.9           (0.919569 0.000789138 -0.0130371) (1.0209 0.0257942 0.00634192) (1.02275 -0.0117702 -0.0105286)
1.91          (0.919133 0.00579305 -0.0134552) (1.01597 0.0281404 0.00523313) (1.0271 -0.0104875 -0.00966486)
1.92          (0.919484 0.00413042 -0.0139282) (1.01681 0.028514 0.00462754) (1.02449 -0.0125123 -0.0098098)
1.93          (0.918592 0.00250533 -0.0145546) (1.01777 0.0286742 0.00361957) (1.02171 -0.0152587 -0.0093233)
1.94          (0.91684 0.00765419 -0.0148977) (1.01397 0.0296467 0.00258655) (1.02744 -0.0134749 -0.00822664)
1.95          (0.919695 0.00710545 -0.0152816) (1.01197 0.0316189 0.00158713) (1.02348 -0.0174621 -0.00724193)
1.96          (0.919368 0.00734467 -0.0155853) (1.01138 0.0319821 0.00128591) (1.02325 -0.0192222 -0.00692533)
1.97          (0.919425 0.0146527 -0.0157879) (1.00412 0.0357705 -0.000284759) (1.0275 -0.0198232 -0.00671912)
1.98          (0.919823 0.00930121 -0.0156547) (1.00502 0.0377191 -8.68191e-05) (1.02245 -0.0247807 -0.00594486)
1.99          (0.920431 0.00487953 -0.0160119) (1.00819 0.0365 -0.000994236) (1.01672 -0.0296915 -0.00524059)
2             (0.920602 0.00643684 -0.0162969) (1.0061 0.0377415 -0.0016166) (1.01711 -0.0316905 -0.00486143)
2.01          (0.919149 0.0057213 -0.0162084) (1.00722 0.0372488 -0.00191012) (1.01789 -0.032225 -0.00397857)
2.02          (0.916833 0.0127595 -0.0160029) (1.00166 0.0385818 -0.00223878) (1.02613 -0.0298756 -0.00327272)
2.03          (0.917602 0.00837931 -0.0161292) (1.00403 0.0381708 -0.00252206) (1.02151 -0.0334222 -0.00262881)
2.04          (0.915144 0.00609316 -0.0163503) (1.00628 0.0363308 -0.0023904) (1.02162 -0.0351262 -0.00180846)
2.05          (0.915599 0.00751899 -0.0164787) (1.00365 0.0377048 -0.00337705) (1.02312 -0.036558 -0.00114925)
2.06          (0.919853 0.00780067 -0.0162185) (0.999728 0.0396501 -0.0035213) (1.02095 -0.0400448 -0.000456978)
2.07          (0.918109 0.00461023 -0.0159552) (1.00495 0.0361333 -0.0037688) (1.01851 -0.0427638 -1.45852e-05)
2.08          (0.918489 0.000926324 -0.0158028) (1.00674 0.0354545 -0.00441152) (1.01551 -0.0456459 0.000376705)
2.09          (0.918081 -0.00015713 -0.0157801) (1.00651 0.0351597 -0.00440455) (1.01698 -0.0462269 0.000709844)
2.1           (0.919677 4.1208e-05 -0.0156808) (1.00489 0.0357102 -0.00408575) (1.017 -0.0480717 0.000916997)
2.11          (0.921016 0.00318105 -0.0153049) (1.00013 0.0370186 -0.00496883) (1.02049 -0.0487924 0.00144571)
2.12          (0.920993 0.0022316 -0.015299) (1.00085 0.0362613 -0.00472082) (1.02066 -0.0503625 0.00235768)
2.13          (0.920897 0.00203542 -0.0151443) (0.999639 0.0366631 -0.00457122) (1.02355 -0.049657 0.00301902)
2.14          (0.921465 -8.67393e-05 -0.0145052) (1.00036 0.0358287 -0.004787) (1.02376 -0.0501174 0.00375334)
2.15          (0.922704 0.00316167 -0.0137739) (0.996539 0.0373087 -0.00524872) (1.02724 -0.0504343 0.00344629)
2.16          (0.924244 0.00280466 -0.0133808) (0.99596 0.0371638 -0.00451166) (1.02766 -0.0518197 0.00374796)
2.17          (0.925435 -0.00228236 -0.0128898) (0.999418 0.0348526 -0.00457867) (1.02574 -0.0526517 0.0038906)
2.18          (0.926301 -0.00586417 -0.0124826) (1.00305 0.0322685 -0.00498029) (1.02393 -0.0536222 0.00453636)
2.19          (0.924833 -0.00713398 -0.0119279) (1.00697 0.0283982 -0.00471578) (1.02598 -0.0519582 0.00522934)
2.2           (0.925033 -0.00922302 -0.0108466) (1.00813 0.0270577 -0.00493738) (1.02718 -0.0516853 0.00548748)
2.21          (0.928407 -0.0110176 -0.0099423) (1.0075 0.0266953 -0.00541211) (1.02685 -0.0522526 0.00561941)
2.22          (0.93282 -0.00819867 -0.009041) (1.00327 0.0282184 -0.00580721) (1.0276 -0.0533118 0.00597371)
2.23          (0.93129 -0.0117717 -0.00787377) (1.00846 0.0255901 -0.00531741) (1.02731 -0.0528347 0.0058938)
2.24          (0.935053 -0.0096859 -0.00694004) (1.00558 0.0260998 -0.00615331) (1.02945 -0.0523751 0.00641686)
2.25          (0.937615 -0.0102834 -0.00569023) (1.00554 0.0253653 -0.00646849) (1.02998 -0.0517724 0.00650701)
2.26          (0.941644 -0.0103904 -0.00448512) (1.00373 0.0264998 -0.00633835) (1.02924 -0.052425 0.00668477)
2.27          (0.942053 -0.014218 -0.00328436) (1.00706 0.0251959 -0.00620901) (1.02979 -0.0513036 0.00691368)
2.28          (0.943017 -0.0139146 -0.00211142) (1.00839 0.0234083 -0.00670582) (1.03039 -0.0516541 0.00720053)
2.29          (0.943741 -0.0132799 -0.000863497) (1.01057 0.0211051 -0.00661741) (1.0315 -0.0503232 0.00709347)
2.3           (0.945333 -0.011654 0.00035702) (1.0099 0.020862 -0.00712506) (1.0346 -0.0479425 0.00734648)
2.31          (0.947408 -0.0115631 0.00189842) (1.0092 0.0211642 -0.00849624) (1.03617 -0.0467222 0.00824218)
2.32          (0.950482 -0.0103722 0.00326263) (1.00896 0.0211297 -0.0086343) (1.03607 -0.0467681 0.00900074)
2.33          (0.950993 -0.0102539 0.00467244) (1.00816 0.022808 -0.00930839) (1.03822 -0.0450587 0.00976379)
2.34          (0.952821 -0.0082343 0.00615479) (1.00596 0.0237097 -0.0092059) (1.04135 -0.0431768 0.0102531)
2.35          (0.953867 -0.00886335 0.00738038) (1.00761 0.0233664 -0.00967851) (1.04139 -0.0425418 0.0104513)
2.36          (0.9547 -0.00730328 0.00842397) (1.00946 0.0214205 -0.0103876) (1.04272 -0.0416544 0.0107281)
2.37          (0.953908 -0.00685501 0.00960882) (1.01079 0.0207005 -0.0114268) (1.04494 -0.0401787 0.0114656)
2.38          (0.956022 -0.00522271 0.0108728) (1.00967 0.0218442 -0.0120937) (1.04595 -0.039254 0.0127141)
2.39          (0.95814 -0.00686822 0.011996) (1.01056 0.022352 -0.0123345) (1.04567 -0.0383725 0.0133813)
2.4           (0.957426 -0.00551042 0.0130276) (1.00901 0.0253045 -0.0126918) (1.04918 -0.0362104 0.0134249)
2.41          (0.957705 -0.00462865 0.0144402) (1.00918 0.0261289 -0.0132457) (1.05102 -0.0354251 0.0141307)
2.42          (0.95939 -0.00702327 0.0154379) (1.00975 0.0283652 -0.0139922) (1.04951 -0.0364148 0.0151858)
2.43          (0.958726 -0.00618159 0.0160047) (1.01111 0.0279066 -0.0143817) (1.05162 -0.0346119 0.0162471)
2.44          (0.960323 -0.00364151 0.0170797) (1.00885 0.0304425 -0.0152432) (1.05444 -0.0332168 0.0171736)
2.45          (0.95877 -0.0017989 0.0180353) (1.01061 0.0300371 -0.0154281) (1.05783 -0.031253 0.0179316)
2.46          (0.958315 -0.00439214 0.018557) (1.01348 0.0310122 -0.0155325) (1.05596 -0.033135 0.0185384)
2.47          (0.956527 -0.00485635 0.0188447) (1.01539 0.0312421 -0.0160656) (1.05868 -0.0307348 0.0191988)
2.48          (0.955704 -0.00318407 0.019141) (1.01558 0.0327287 -0.0160231) (1.06131 -0.0308386 0.0196672)
2.49          (0.955254 -0.00565333 0.0195676) (1.01988 0.0326973 -0.0165362) (1.05916 -0.0320014 0.0207786)
2.5           (0.956239 -0.00743898 0.0201379) (1.02062 0.0355942 -0.0171941) (1.05854 -0.0319173 0.0220843)
2.51          (0.951936 -0.00536144 0.020018) (1.02192 0.0362443 -0.0172994) (1.06485 -0.0288351 0.0226188)
2.52          (0.952254 -0.00660117 0.0198743) (1.02311 0.0379771 -0.0173615) (1.0641 -0.0299746 0.0230347)
2.53          (0.952352 -0.00590454 0.0196331) (1.02321 0.0406561 -0.0180604) (1.06504 -0.0304792 0.0242138)
2.54          (0.949845 -0.00684966 0.0192717) (1.0259 0.0421963 -0.0179013) (1.06663 -0.0304746 0.0251333)
2.55          (0.947889 -0.00826873 0.0189179) (1.02861 0.0434014 -0.0178705) (1.06851 -0.0288817 0.0255467)
2.56          (0.947752 -0.00662509 0.0185315) (1.02822 0.0455171 -0.0181699) (1.07079 -0.0289737 0.0262016)
2.57          (0.945091 -0.0073207 0.0180779) (1.02975 0.0472013 -0.0184472) (1.07422 -0.0274152 0.0271655)
2.58          (0.947006 -0.00606326 0.0173553) (1.02795 0.050456 -0.018356) (1.07358 -0.0296207 0.0276389)
2.59          (0.946164 -0.00464145 0.0165366) (1.02835 0.0528734 -0.0180011) (1.07556 -0.028988 0.0282246)
2.6           (0.941609 -0.00383872 0.0158162) (1.03142 0.0530414 -0.01718) (1.08076 -0.0261789 0.0285957)
2.61          (0.940043 -0.00130425 0.014778) (1.03029 0.0564396 -0.0173018) (1.08391 -0.0262651 0.0292614)
2.62          (0.93845 -0.00230249 0.0135549) (1.03122 0.0584921 -0.0176343) (1.08558 -0.0255188 0.0293084)
2.63          (0.936944 -0.00409787 0.0124067) (1.03476 0.0587432 -0.0172218) (1.08667 -0.0240264 0.0298143)
2.64          (0.936644 -0.00466905 0.0113575) (1.0359 0.0605604 -0.0162558) (1.08636 -0.0245848 0.0297153)
2.65          (0.933713 -0.00459325 0.0100302) (1.03827 0.0609007 -0.0154962) (1.08862 -0.0230604 0.0303262)
2.66          (0.93346 -0.00451434 0.00870702) (1.0398 0.0617693 -0.0156972) (1.08851 -0.0236947 0.0301818)
2.67          (0.93299 -0.00479964 0.00731712) (1.04136 0.0625711 -0.0153431) (1.08799 -0.0237923 0.0297925)
2.68          (0.93006 -0.00491841 0.00617803) (1.043 0.0634762 -0.0148559) (1.09051 -0.0222931 0.0294387)
2.69          (0.930263 -0.00436918 0.00472138) (1.0433 0.0654468 -0.0136795) (1.09047 -0.0216893 0.0294986)