# Probe 0 (-1.5 0 0)
# Time        0            
0.01          (0.908988 -0.0415546 -0.00257519)
0.02          (0.866809 -0.0661784 -0.00442874)
0.03          (0.878636 -0.0618395 -0.00380042)
0.04          (0.888051 -0.0692105 -0.0041801)
0.05          (0.888922 -0.0793015 -0.00357454)
0.06          (0.895917 -0.0856518 -0.00447696)
0.07          (0.899584 -0.0945316 -0.00554106)
0.08          (0.901255 -0.103381 -0.00608257)
0.09          (0.900743 -0.0925546 -0.00689581)
0.1           (0.898199 -0.0871877 -0.00820116)
0.11          (0.897458 -0.0841333 -0.00855774)
0.12          (0.899392 -0.0890446 -0.00901955)
0.13          (0.885521 -0.0949611 -0.00815244)
0.14          (0.883142 -0.098614 -0.00837595)
0.15          (0.87684 -0.0839407 -0.00827309)
0.16          (0.874124 -0.073248 -0.00847213)
0.17          (0.870422 -0.0659298 -0.00928179)
0.18          (0.869193 -0.0653975 -0.0100662)
0.19          (0.867786 -0.0723722 -0.0107135)
0.2           (0.869932 -0.0589463 -0.0112913)
0.21          (0.870982 -0.0564956 -0.012399)
0.22          (0.868038 -0.0545914 -0.0124686)
0.23          (0.881805 -0.0815956 -0.0137177)
0.24          (0.881367 -0.0834906 -0.0142204)
0.25          (0.879525 -0.086528 -0.0141448)
0.26          (0.87971 -0.0820617 -0.0138275)
0.27          (0.877886 -0.0848302 -0.014359)
0.28          (0.877765 -0.0762014 -0.0144999)
0.29          (0.872359 -0.0705023 -0.0134813)
0.3           (0.872227 -0.0687256 -0.0133081)
0.31          (0.871047 -0.0746324 -0.0128878)
0.32          (0.869446 -0.0856075 -0.0125411)
0.33          (0.868892 -0.0797085 -0.0128195)
0.34          (0.872479 -0.0789797 -0.0151411)
0.35          (0.870089 -0.0716076 -0.0155279)
0.36          (0.870805 -0.0748295 -0.015326)
0.37          (0.868179 -0.0727904 -0.0155539)
0.38          (0.86421 0.00281024 -0.018793)
0.39          (0.860873 -0.00516686 -0.0186734)
0.4           (0.85971 -0.00616951 -0.0191304)
0.41          (0.856653 -0.00387285 -0.0190125)
0.42          (0.850922 -0.00902717 -0.0188838)
0.43          (0.849622 -0.0112566 -0.0187771)
0.44          (0.837308 -0.0180816 -0.0188062)
0.45          (0.830872 -0.0188056 -0.0184289)
0.46          (0.829075 -0.0281295 -0.0189221)
0.47          (0.826536 -0.0394901 -0.0181091)
0.48          (0.824172 -0.0467496 -0.0177706)
0.49          (0.827102 -0.0513175 -0.0182042)
0.5           (0.824791 -0.0472371 -0.0183022)
0.51          (0.826572 -0.0568986 -0.0184387)
0.52          (0.822583 -0.0565794 -0.0184963)
0.53          (0.819223 -0.0464442 -0.0182735)
0.54          (0.82728 -0.0431983 -0.0247025)
0.55          (0.829081 -0.043912 -0.024152)
0.56          (0.824978 -0.0348436 -0.0237644)
0.57          (0.822325 -0.0353479 -0.0228004)
0.58          (0.824644 -0.0142033 -0.0216307)
0.59          (0.817821 -0.0195329 -0.0210507)
0.6           (0.811708 -0.0243366 -0.020714)
0.61          (0.812911 -0.014207 -0.0188345)
0.62          (0.827409 -0.0412152 -0.0182625)
0.63          (0.82091 -0.064315 -0.0172752)
0.64          (0.826248 -0.0942596 -0.0181052)
0.65          (0.811622 -0.0957708 -0.0165965)
0.66          (0.809288 -0.12982 -0.0158125)
0.67          (0.801759 -0.125397 -0.0154324)
0.68          (0.794581 -0.114577 -0.0140896)
0.69          (0.786941 -0.114282 -0.0130453)
0.7           (0.775215 -0.106297 -0.0118556)
0.71          (0.767187 -0.09572 -0.010783)
0.72          (0.756257 -0.0755469 -0.0097498)
0.73          (0.745008 -0.0616098 -0.00866536)
0.74          (0.7397 -0.0608399 -0.00760881)
0.75          (0.736869 -0.0586828 -0.00974324)
0.76          (0.724222 -0.0507172 -0.00906371)
0.77          (0.712419 -0.043159 -0.00871378)
0.78          (0.701523 -0.0336409 -0.0086999)
0.79          (0.655336 -0.0824085 -0.000937183)
0.8           (0.645373 -0.0756204 -0.00160817)
0.81          (0.650193 -0.082652 -0.0053455)
0.82          (0.642789 -0.0642088 -0.00530134)
0.83          (0.639157 -0.0738704 -0.0053577)
0.84          (0.63248 -0.0637898 -0.00600996)
0.85          (0.632218 -0.059689 -0.0100546)
0.86          (0.621064 -0.0558335 -0.0120757)
0.87          (0.608821 -0.0592767 -0.0138184)
0.88          (0.603789 -0.0551398 -0.0158548)
0.89          (0.596139 -0.0459934 -0.017253)
0.9           (0.58718 -0.042063 -0.0198609)
0.91          (0.574199 -0.0344595 -0.0215327)
0.92          (0.56776 -0.0349894 -0.0234288)
0.93          (0.561461 -0.0241387 -0.0259096)
0.94          (0.553372 -0.0258208 -0.0284793)
0.95          (0.555045 -0.0432424 -0.0398874)
0.96          (0.548159 -0.0481902 -0.0431081)
0.97          (0.541564 -0.0487234 -0.0462635)
0.98          (0.535081 -0.057413 -0.0490892)
0.99          (0.528684 -0.0418188 -0.0526924)
1             (0.531476 -0.0382127 -0.0498383)
1.01          (0.527568 -0.0346784 -0.0535138)
1.02          (0.522744 -0.0428222 -0.0582828)
1.03          (0.523765 -0.070318 -0.0624823)
1.04          (0.507278 -0.123764 -0.0658221)
1.05          (0.515173 -0.150133 -0.0693057)
1.06          (0.505218 -0.155365 -0.0724955)
1.07          (0.496847 -0.129504 -0.0755808)
1.08          (0.488356 -0.126018 -0.0787378)
1.09          (0.486408 -0.115519 -0.0824748)
1.1           (0.483583 -0.10626 -0.0858459)
1.11          (0.479164 -0.0921211 -0.088829)
1.12          (0.478393 -0.0927685 -0.0916151)
1.13          (0.47753 -0.0739098 -0.0948215)
1.14          (0.47234 -0.0699027 -0.0978302)
1.15          (0.468233 -0.0581997 -0.101996)
1.16          (0.474138 -0.0289081 -0.104274)
1.17          (0.454092 0.00364593 -0.106681)
1.18          (0.450773 0.00331744 -0.108797)
1.19          (0.448442 0.00104933 -0.110461)
1.2           (0.432034 -0.00702537 -0.108969)
1.21          (0.426962 -0.00589779 -0.10896)
1.22          (0.410012 -0.0353714 -0.112819)
1.23          (0.41078 -0.0482785 -0.109965)
1.24          (0.393325 -0.0183907 -0.107209)
1.25          (0.392981 -0.0218138 -0.101909)
1.26          (0.384866 -0.00750321 -0.096391)
1.27          (0.385728 -0.0132425 -0.0913741)
1.28          (0.394507 -0.036658 -0.0843802)
1.29          (0.395683 -0.051909 -0.0769865)
1.3           (0.397853 -0.076796 -0.0678678)
1.31          (0.40136 -0.0902887 -0.0582128)
1.32          (0.40937 -0.112485 -0.0475218)
1.33          (0.411351 -0.12939 -0.0360165)
1.34          (0.421003 -0.143318 -0.0244441)
1.35          (0.427923 -0.158883 -0.0124141)
1.36          (0.455416 -0.134824 -0.00209836)
1.37          (0.461848 -0.15016 0.0110052)
1.38          (0.470071 -0.176242 0.0250811)
1.39          (0.481497 -0.179334 0.0390043)
1.4           (0.481573 -0.176657 0.0519486)
1.41          (0.497053 -0.135419 0.0558951)
1.42          (0.504503 -0.143978 0.0711062)
1.43          (0.510938 -0.140049 0.0871153)
1.44          (0.525543 -0.16263 0.101379)
1.45          (0.527437 -0.125196 0.115987)
1.46          (0.543479 -0.177914 0.130557)
1.47          (0.547766 -0.202592 0.144457)
1.48          (0.556997 -0.21306 0.158557)
1.49          (0.562867 -0.225818 0.171327)
1.5           (0.573836 -0.235036 0.182976)
1.51          (0.581994 -0.248959 0.194229)
1.52          (0.597101 -0.270145 0.204251)
1.53          (0.609397 -0.283714 0.213297)
1.54          (0.62448 -0.310601 0.221313)
1.55          (0.643321 -0.323892 0.228019)
1.56          (0.659091 -0.351289 0.232751)
1.57          (0.694575 -0.320607 0.235929)
1.58          (0.712979 -0.333199 0.238214)
1.59          (0.728725 -0.336378 0.238712)
1.6           (0.749205 -0.346963 0.237299)
1.61          (0.765397 -0.351721 0.23836)
1.62          (0.782632 -0.357026 0.232154)
1.63          (0.796763 -0.405445 0.238663)
1.64          (0.819562 -0.403453 0.227409)
1.65          (0.85681 -0.42773 0.215654)
1.66          (0.879567 -0.426565 0.19946)
1.67          (0.906596 -0.468068 0.179604)
1.68          (0.923559 -0.463572 0.159936)
1.69          (0.947575 -0.467296 0.138469)
1.7           (0.971084 -0.466332 0.115633)
1.71          (0.990057 -0.457043 0.0915201)
1.72          (1.00557 -0.453767 0.0668446)
1.73          (1.02161 -0.444791 0.0421923)
1.74          (1.02982 -0.424783 0.0182004)
1.75          (1.03228 -0.413886 -0.00499827)
1.76          (1.03613 -0.401553 -0.0266735)
1.77          (1.0356 -0.512267 -0.0560633)
1.78          (1.03193 -0.509195 -0.0791371)
1.79          (1.03304 -0.50347 -0.101421)
1.8           (1.02906 -0.494861 -0.122075)
1.81          (1.01278 -0.450353 -0.139939)
1.82          (0.990404 -0.508201 -0.15477)
1.83          (0.982108 -0.48659 -0.169024)
1.84          (0.969699 -0.469683 -0.180298)
1.85          (0.954223 -0.445702 -0.189313)
1.86          (0.933851 -0.461047 -0.199484)
1.87          (0.922053 -0.451986 -0.205835)
1.88          (0.914459 -0.430838 -0.211421)
1.89          (0.898932 -0.419558 -0.214425)
1.9           (0.887451 -0.404553 -0.216613)
1.91          (0.879154 -0.392253 -0.217348)
1.92          (0.869315 -0.375595 -0.21711)
1.93          (0.863218 -0.351604 -0.215936)
1.94          (0.849205 -0.322102 -0.21353)
1.95          (0.840578 -0.30063 -0.20997)
1.96          (0.834892 -0.294362 -0.205644)
1.97          (0.824452 -0.279757 -0.200892)
1.98          (0.815584 -0.235376 -0.190041)
1.99          (0.804676 -0.207706 -0.182174)
2             (0.798764 -0.208135 -0.17326)
2.01          (0.794207 -0.204909 -0.164104)
2.02          (0.774102 -0.182808 -0.156225)
2.03          (0.772469 -0.173587 -0.147162)
2.04          (0.776711 -0.154484 -0.130917)
2.05          (0.775765 -0.152745 -0.121108)
2.06          (0.777883 -0.171364 -0.110655)
2.07          (0.778483 -0.167704 -0.100631)
2.08          (0.759998 -0.182747 -0.0921766)
2.09          (0.760593 -0.182456 -0.0836979)
2.1           (0.769904 -0.205305 -0.0755344)
2.11          (0.772051 -0.207562 -0.0676519)
2.12          (0.776095 -0.213858 -0.0581857)
2.13          (0.772727 -0.222307 -0.0522835)
2.14          (0.771772 -0.219041 -0.0446966)
2.15          (0.774279 -0.221188 -0.0372298)
2.16          (0.774335 -0.21731 -0.0299521)
2.17          (0.777398 -0.226698 -0.0222899)
2.18          (0.783149 -0.175113 -0.0158695)
2.19          (0.784431 -0.164509 -0.00625971)
2.2           (0.787461 -0.163876 0.00295105)
2.21          (0.790108 -0.152334 0.01198)
2.22          (0.793746 -0.144214 0.021667)
2.23          (0.799167 -0.158859 0.0346261)
2.24          (0.805728 -0.164735 0.0443995)
2.25          (0.803379 -0.143459 0.0538834)
2.26          (0.822402 -0.19598 0.063725)
2.27          (0.830895 -0.203228 0.0744676)
2.28          (0.841917 -0.226363 0.0850196)
2.29          (0.850448 -0.227768 0.0963544)
2.3           (0.858754 -0.244679 0.107919)
2.31          (0.862963 -0.246545 0.121015)
2.32          (0.860559 -0.237629 0.13447)
2.33          (0.859209 -0.241168 0.149822)
2.34          (0.852293 -0.230509 0.165477)
2.35          (0.850263 -0.212695 0.182618)
2.36          (0.843355 -0.187539 0.200456)
2.37          (0.835011 -0.172914 0.219269)
2.38          (0.813139 -0.122294 0.237531)
2.39          (0.806622 -0.105909 0.258774)
2.4           (0.790777 -0.0670894 0.277038)
2.41          (0.781875 -0.0447508 0.295502)
2.42          (0.772636 -0.022306 0.313165)
2.43          (0.761805 0.020798 0.333821)
2.44          (0.750162 0.0419745 0.348171)
2.45          (0.737685 0.0586471 0.370226)
2.46          (0.728941 0.0740028 0.382207)
2.47          (0.713484 0.149756 0.392181)
2.48          (0.706513 0.169461 0.399283)
2.49          (0.706821 0.164682 0.404577)
2.5           (0.705972 0.176825 0.407628)
2.51          (0.71203 0.178997 0.408239)
2.52          (0.712297 0.20145 0.406168)
2.53          (0.7095 0.217654 0.40118)
2.54          (0.71106 0.231837 0.394008)
2.55          (0.718828 0.246363 0.38378)
2.56          (0.724239 0.258633 0.371146)
2.57          (0.732014 0.268544 0.356603)
2.58          (0.741876 0.271546 0.340757)
2.59          (0.741306 0.275975 0.329619)
2.6           (0.746405 0.272892 0.309459)
2.61          (0.755201 0.267927 0.287908)
2.62          (0.763962 0.257262 0.264425)
2.63          (0.765709 0.246154 0.239488)
2.64          (0.757326 0.209977 0.202188)
2.65          (0.760721 0.188355 0.175985)
2.66          (0.766515 0.164006 0.150186)
2.67          (0.76171 0.150151 0.12377)
2.68          (0.76675 0.133577 0.0951469)
2.69          (0.774478 0.0905707 0.0673243)
2.7           (0.777375 0.0412768 0.0387633)
2.71          (0.794385 -0.0426382 0.010244)
2.72          (0.802379 -0.0941899 -0.0168354)
2.73          (0.805718 -0.144538 -0.0423233)
2.74          (0.805521 -0.191069 -0.0686045)
2.75          (0.814233 -0.242591 -0.0949812)
2.76          (0.828796 -0.285601 -0.119205)
2.77          (0.832718 -0.321325 -0.141181)
2.78          (0.842342 -0.36141 -0.16113)
2.79          (0.849796 -0.363851 -0.178704)
2.8           (0.875875 -0.396265 -0.191975)
2.81          (0.889853 -0.414856 -0.207473)
2.82          (0.905607 -0.430108 -0.219106)
2.83          (0.920163 -0.448921 -0.228891)
2.84          (0.952524 -0.513317 -0.241689)
2.85          (0.969764 -0.529532 -0.248362)
2.86          (0.998525 -0.511176 -0.262476)
2.87          (1.01546 -0.528536 -0.26661)
2.88          (1.034 -0.533696 -0.272242)
2.89          (1.05038 -0.538289 -0.274961)
2.9           (1.0446 -0.560291 -0.273867)
2.91          (1.05834 -0.549888 -0.275364)
2.92          (1.05105 -0.508292 -0.276747)
2.93          (1.05997 -0.484045 -0.278576)
2.94          (1.06857 -0.472291 -0.280377)
2.95          (1.07033 -0.447111 -0.282392)
2.96          (1.07259 -0.420152 -0.284548)
2.97          (1.07047 -0.39849 -0.287429)
2.98          (1.07109 -0.389671 -0.290488)
2.99          (1.07062 -0.370789 -0.293862)
3             (1.07683 -0.304934 -0.303414)
3.01          (1.07429 -0.293323 -0.307456)
3.02          (1.0698 -0.278247 -0.311361)
3.03          (1.06045 -0.268821 -0.31537)
3.04          (1.05226 -0.267823 -0.317689)
3.05          (1.03199 -0.317651 -0.316939)
3.06          (1.0211 -0.300403 -0.320529)
3.07          (1.00845 -0.274916 -0.324946)
3.08          (1.0031 -0.257367 -0.33057)
3.09          (0.993986 -0.24222 -0.336649)
3.1           (0.98159 -0.19428 -0.340945)
3.11          (0.966836 -0.170151 -0.346149)
3.12          (0.950343 -0.143091 -0.351032)
3.13          (0.939033 -0.127025 -0.355707)
3.14          (0.922459 -0.106476 -0.359345)
3.15          (0.905487 -0.0873523 -0.363355)
3.16          (0.896436 -0.0761589 -0.367202)
3.17          (0.887698 -0.0592485 -0.369851)
3.18          (0.871102 -0.0362983 -0.371714)
3.19          (0.865229 -0.0301936 -0.373189)
3.2           (0.840543 0.014701 -0.373993)
3.21          (0.845684 0.0571549 -0.373289)
3.22          (0.840908 0.044824 -0.373141)
3.23          (0.835668 0.053756 -0.37111)
3.24          (0.831493 0.059971 -0.368191)
3.25          (0.837562 0.0162157 -0.374671)
3.26          (0.83319 0.0203574 -0.372381)
3.27          (0.827719 -0.0140152 -0.365944)
3.28          (0.824881 -0.0134272 -0.363554)
3.29          (0.821948 -0.0267626 -0.361256)
3.3           (0.813557 -0.0363909 -0.359046)
3.31          (0.804931 -0.0323888 -0.356784)
3.32          (0.793416 -0.0386475 -0.354868)
3.33          (0.789307 -0.0449844 -0.351827)
3.34          (0.784755 -0.0461197 -0.351173)
3.35          (0.778166 -0.0616171 -0.349855)
3.36          (0.766794 -0.0677826 -0.349292)
3.37          (0.754474 -0.0703463 -0.348549)
3.38          (0.737874 -0.075239 -0.348799)
3.39          (0.722518 -0.0964895 -0.348382)
3.4           (0.706797 -0.106432 -0.347911)
3.41          (0.649434 -0.189284 -0.346165)
3.42          (0.631536 -0.203054 -0.347014)
3.43          (0.616129 -0.210322 -0.347068)
3.44          (0.598387 -0.219134 -0.346231)
3.45          (0.580739 -0.212702 -0.344843)
3.46          (0.572434 -0.210152 -0.338078)
3.47          (0.55897 -0.215561 -0.336194)
3.48          (0.545872 -0.194096 -0.335542)
3.49          (0.530278 -0.156241 -0.333517)
3.5           (0.522783 -0.131171 -0.329515)
3.51          (0.522309 -0.108826 -0.325403)
3.52          (0.521794 -0.106056 -0.322083)
3.53          (0.523439 -0.0922637 -0.319069)
3.54          (0.523671 -0.0808687 -0.316905)
3.55          (0.527045 -0.0705205 -0.314639)
3.56          (0.533729 -0.0584681 -0.312678)
3.57          (0.543524 -0.0495072 -0.310512)
3.58          (0.556363 -0.033015 -0.30833)
3.59          (0.565453 -0.0106448 -0.305741)
3.6           (0.581625 0.0021031 -0.304116)
3.61          (0.609217 -0.00445685 -0.301865)
3.62          (0.62075 -0.000832013 -0.293145)
3.63          (0.637145 0.0172071 -0.291483)
3.64          (0.654409 0.0334731 -0.287026)
3.65          (0.67428 0.0498191 -0.281882)
3.66          (0.689822 0.035634 -0.273547)
3.67          (0.707811 0.0527636 -0.266074)
3.68          (0.73659 -0.0266473 -0.254724)
3.69          (0.76215 -0.00883141 -0.24412)
3.7           (0.790492 -0.00600052 -0.232439)
3.71          (0.811637 0.0201563 -0.218845)
3.72          (0.829131 0.0223719 -0.200658)
3.73          (0.849951 0.0472662 -0.183485)
3.74          (0.865083 0.076819 -0.164779)
3.75          (0.882069 0.0979419 -0.143816)
3.76          (0.897121 0.10632 -0.122605)
3.77          (0.901355 0.126103 -0.10018)
3.78          (0.909273 0.150644 -0.0788422)
3.79          (0.915737 0.181931 -0.0572383)
3.8           (0.911916 0.206933 -0.0360499)
3.81          (0.903595 0.229499 -0.0161737)
3.82          (0.905221 0.214434 -0.00963632)
3.83          (0.895087 0.234443 0.00872256)
3.84          (0.881442 0.253317 0.0263126)
3.85          (0.867746 0.274149 0.0424827)
3.86          (0.852415 0.292797 0.0578837)
3.87          (0.834297 0.350882 0.0684085)
3.88          (0.812631 0.367632 0.0796225)
3.89          (0.803359 0.364017 0.0893128)
3.9           (0.771614 0.396115 0.0995562)
3.91          (0.758111 0.432491 0.109949)
3.92          (0.71936 0.478114 0.117334)
3.93          (0.701329 0.486558 0.123725)
3.94          (0.682431 0.491454 0.128735)
3.95          (0.658498 0.509224 0.135401)
3.96          (0.638038 0.525689 0.140433)
3.97          (0.619098 0.533439 0.145672)
3.98          (0.600923 0.541936 0.149928)
3.99          (0.585359 0.55353 0.154247)
4             (0.572425 0.550402 0.15877)
4.01          (0.561733 0.550011 0.16278)
4.02          (0.54852 0.567887 0.166922)
4.03          (0.531926 0.557251 0.17096)
4.04          (0.513197 0.581011 0.175218)
4.05          (0.505258 0.574826 0.17963)
4.06          (0.503204 0.565086 0.18441)
4.07          (0.488286 0.624362 0.184447)
4.08          (0.486312 0.609852 0.19022)
4.09          (0.468042 0.644348 0.196299)
4.1           (0.470011 0.635072 0.202966)
4.11          (0.472375 0.624457 0.210235)
4.12          (0.475242 0.614609 0.217751)
4.13          (0.478327 0.597333 0.225846)
4.14          (0.48077 0.580555 0.233232)
4.15          (0.479461 0.552061 0.240105)
4.16          (0.481444 0.544434 0.246781)
4.17          (0.482336 0.523577 0.252905)
4.18          (0.474266 0.50007 0.258101)
4.19          (0.468335 0.471866 0.262288)
4.2           (0.46441 0.453275 0.265431)
4.21          (0.459954 0.435127 0.267439)
4.22          (0.454233 0.413186 0.268638)
4.23          (0.448995 0.339503 0.265087)
4.24          (0.444045 0.320577 0.26399)
4.25          (0.439488 0.314548 0.261935)
4.26          (0.436534 0.291683 0.259179)
4.27          (0.442811 0.244598 0.255877)
4.28          (0.444196 0.242596 0.245354)
4.29          (0.439479 0.217783 0.240203)
4.3           (0.43598 0.190091 0.234715)
4.31          (0.435096 0.169545 0.229498)
4.32          (0.438582 0.147665 0.222222)
4.33          (0.43294 0.139533 0.216175)
4.34          (0.42059 0.125438 0.210746)
4.35          (0.398702 0.153606 0.205491)
4.36          (0.391596 0.14383 0.200172)
4.37          (0.385319 0.134565 0.194592)
4.38          (0.378329 0.1244 0.19003)
4.39          (0.370506 0.118691 0.185991)
4.4           (0.363689 0.10633 0.183308)
4.41          (0.357575 0.0938589 0.179643)
4.42          (0.350295 0.0853181 0.176882)
4.43          (0.338807 0.0912986 0.174311)
4.44          (0.334915 0.0843421 0.171733)
4.45          (0.327377 0.0878175 0.169826)
4.46          (0.324412 0.0760147 0.168399)
4.47          (0.321732 0.0671136 0.167631)
4.48          (0.29247 0.041382 0.162292)
4.49          (0.29202 0.0323593 0.161923)
4.5           (0.313823 0.0893323 0.160902)
4.51          (0.315451 0.0819068 0.161033)
4.52          (0.337336 0.026899 0.161543)
4.53          (0.334726 0.0130145 0.162808)
4.54          (0.340511 0.0329523 0.16321)
4.55          (0.340314 0.0292155 0.165453)
4.56          (0.349702 0.00115693 0.168005)
4.57          (0.350642 -0.0153169 0.170478)
4.58          (0.344754 -0.0396706 0.173379)
4.59          (0.335465 -0.0369178 0.175953)
4.6           (0.329174 -0.0461599 0.178467)
4.61          (0.327472 -0.0473269 0.180897)
4.62          (0.32 -0.0444943 0.183104)
4.63          (0.318663 -0.0464843 0.185019)
4.64          (0.32524 -0.0420801 0.19627)
4.65          (0.326684 -0.0457478 0.197063)
4.66          (0.325631 -0.0471748 0.197573)
4.67          (0.323736 -0.0369335 0.198087)
4.68          (0.325661 -0.0253881 0.197647)
4.69          (0.33121 -0.0386946 0.208105)
4.7           (0.327029 -0.0338552 0.207479)
4.71          (0.308393 0.00560896 0.206075)
4.72          (0.306413 0.0169584 0.204323)
4.73          (0.292937 -0.0177779 0.203688)
4.74          (0.292009 -0.00344798 0.202445)
4.75          (0.289837 0.00941297 0.201549)
4.76          (0.299312 0.00231435 0.200663)
4.77          (0.304474 0.00730866 0.198853)
4.78          (0.30877 -0.00542926 0.19769)
4.79          (0.310899 -0.00377174 0.196229)
4.8           (0.325996 -0.00384326 0.194886)
4.81          (0.337542 -0.00267838 0.193698)
4.82          (0.344774 -0.00453244 0.192148)
4.83          (0.350974 -0.0105317 0.190666)
4.84          (0.358691 -0.010433 0.18907)
4.85          (0.368571 -0.00572732 0.18749)
4.86          (0.38137 -0.0368936 0.185672)
4.87          (0.386412 -0.0397854 0.183314)
4.88          (0.393663 -0.0516774 0.180476)
4.89          (0.395714 -0.0908396 0.180129)
4.9           (0.396985 -0.100856 0.176618)
4.91          (0.402869 -0.070807 0.179294)
4.92          (0.403427 -0.0852706 0.174933)
4.93          (0.408944 -0.0966321 0.170493)
4.94          (0.407273 -0.109265 0.165399)
4.95          (0.404412 -0.119154 0.159419)
4.96          (0.402702 -0.126605 0.153564)
4.97          (0.400879 -0.136489 0.148478)
4.98          (0.397751 -0.13493 0.142941)
4.99          (0.398929 -0.153283 0.136919)
5             (0.397303 -0.158237 0.131079)
5.01          (0.397413 -0.172502 0.125015)
5.02          (0.39272 -0.174156 0.120266)
5.03          (0.398202 -0.184844 0.115441)
5.04          (0.398139 -0.192911 0.110689)
5.05          (0.405432 -0.211898 0.10685)
5.06          (0.40644 -0.232579 0.102419)
5.07          (0.405353 -0.240096 0.0979816)
5.08          (0.402719 -0.274892 0.0937287)
5.09          (0.389537 -0.259206 0.0901423)
5.1           (0.372294 -0.297276 0.0773425)
5.11          (0.371473 -0.316654 0.0743838)
5.12          (0.374403 -0.356742 0.0710491)
5.13          (0.373937 -0.382292 0.0684782)
5.14          (0.375534 -0.432094 0.0661001)
5.15          (0.382614 -0.461022 0.0637797)
5.16          (0.378338 -0.467038 0.0624337)
5.17          (0.376255 -0.457774 0.0619401)
5.18          (0.37472 -0.467033 0.0617349)
5.19          (0.376036 -0.471352 0.0617559)
5.2           (0.374204 -0.481199 0.0622338)
5.21          (0.374898 -0.499024 0.0638392)
5.22          (0.375139 -0.494274 0.0650192)
5.23          (0.376182 -0.500896 0.06615)
5.24          (0.379657 -0.505039 0.0673963)
5.25          (0.39446 -0.544953 0.0682547)
5.26          (0.397572 -0.580866 0.0652074)
5.27          (0.411871 -0.604338 0.0650594)
5.28          (0.42076 -0.611251 0.0655642)
5.29          (0.434926 -0.612594 0.0657077)
5.3           (0.435826 -0.560918 0.0539141)
5.31          (0.445494 -0.547616 0.0539146)
5.32          (0.457132 -0.606744 0.0528769)
5.33          (0.474206 -0.586664 0.0535253)
5.34          (0.509768 -0.615234 0.0534204)
5.35          (0.530551 -0.595921 0.0546956)
5.36          (0.541647 -0.586662 0.0561834)
5.37          (0.559682 -0.567558 0.0580117)
5.38          (0.581566 -0.535542 0.0605529)
5.39          (0.600391 -0.525575 0.0617367)
5.4           (0.622807 -0.497304 0.0630287)
5.41          (0.639052 -0.48489 0.0645765)
5.42          (0.659195 -0.45764 0.0663733)
5.43          (0.678554 -0.440745 0.0682606)
5.44          (0.689569 -0.413136 0.0704157)
5.45          (0.706415 -0.381545 0.0722733)
5.46          (0.721879 -0.370516 0.0701698)
5.47          (0.725444 -0.343215 0.0723181)
5.48          (0.73552 -0.325336 0.0744254)
5.49          (0.73755 -0.306926 0.0759081)
5.5           (0.758689 -0.335076 0.0773841)
5.51          (0.775042 -0.341121 0.069354)
5.52          (0.778744 -0.311643 0.0705066)
5.53          (0.771742 -0.267164 0.0736018)
5.54          (0.76183 -0.204978 0.0740883)
5.55          (0.757098 -0.132173 0.0750838)
5.56          (0.745323 -0.100362 0.0775626)
5.57          (0.739533 -0.0700428 0.077269)
5.58          (0.728132 -0.0415837 0.075079)
5.59          (0.714874 -0.0172549 0.0744183)
5.6           (0.703105 -0.00289955 0.0727786)
5.61          (0.691811 0.026046 0.0710181)
5.62          (0.680281 0.0395896 0.0694017)
5.63          (0.66911 0.0465123 0.0679077)
5.64          (0.65781 0.0568946 0.0662669)
5.65          (0.646188 0.0698141 0.0653654)
5.66          (0.639089 0.0798103 0.0659397)
5.67          (0.617269 0.0603053 0.0626791)
5.68          (0.60636 0.0573382 0.0628643)
5.69          (0.596184 0.0599429 0.0624455)
5.7           (0.587881 0.0655124 0.0621328)
5.71          (0.596924 0.105212 0.0743993)
5.72          (0.587049 0.120151 0.076666)
5.73          (0.571387 0.0901504 0.0729124)
5.74          (0.562145 0.102276 0.0752667)
5.75          (0.563021 0.0655461 0.0775287)
5.76          (0.559405 0.076272 0.0804681)
5.77          (0.550953 0.0782854 0.083764)
5.78          (0.546158 0.0840426 0.0868087)
5.79          (0.529273 0.127128 0.0903447)
5.8           (0.524289 0.13498 0.0939327)
5.81          (0.524963 0.148055 0.0974807)
5.82          (0.517438 0.150935 0.101761)
5.83          (0.517563 0.172573 0.105674)
5.84          (0.514927 0.184424 0.109813)
5.85          (0.512188 0.188143 0.113725)
5.86          (0.509068 0.199962 0.117476)
5.87          (0.509599 0.178319 0.121849)
5.88          (0.50634 0.198364 0.124844)
5.89          (0.505356 0.200218 0.128038)
5.9           (0.50446 0.20493 0.130218)
5.91          (0.506545 0.192331 0.135671)
5.92          (0.531432 0.13745 0.139606)
5.93          (0.532258 0.143441 0.141867)
5.94          (0.542408 0.137468 0.143059)
5.95          (0.554436 0.110935 0.144497)
5.96          (0.553661 0.120825 0.14138)
5.97          (0.544433 0.149609 0.140903)
5.98          (0.540911 0.154183 0.140117)
5.99          (0.544988 0.155302 0.13962)
6             (0.543987 0.155387 0.137723)
6.01          (0.542001 0.16837 0.136079)
6.02          (0.541333 0.174843 0.135213)
6.03          (0.541675 0.177844 0.133872)
6.04          (0.545371 0.18647 0.132361)
6.05          (0.545807 0.190695 0.131293)
6.06          (0.549002 0.193971 0.13129)
6.07          (0.54266 0.215193 0.131007)
6.08          (0.542361 0.232874 0.13452)
6.09          (0.542895 0.242745 0.135175)
6.1           (0.54687 0.246995 0.136625)
6.11          (0.55548 0.239979 0.138362)
6.12          (0.54902 0.236028 0.142024)
6.13          (0.556513 0.233166 0.144066)
6.14          (0.549129 0.250221 0.142102)
6.15          (0.556315 0.243527 0.144779)
6.16          (0.574434 0.218027 0.148195)
6.17          (0.57799 0.215806 0.15156)
6.18          (0.580522 0.236086 0.154409)
6.19          (0.585477 0.227064 0.157349)
6.2           (0.590358 0.220476 0.161357)
6.21          (0.595158 0.201663 0.164347)
6.22          (0.599864 0.192911 0.168047)
6.23          (0.609158 0.197014 0.172045)
6.24          (0.612132 0.193815 0.175291)
6.25          (0.617442 0.182564 0.177862)
6.26          (0.621475 0.183141 0.181021)
6.27          (0.627567 0.174947 0.182678)
6.28          (0.644338 0.226173 0.17867)
6.29          (0.648942 0.216695 0.178542)
6.3           (0.651803 0.219014 0.177959)
6.31          (0.658866 0.201917 0.175886)
6.32          (0.653917 0.218506 0.173663)
6.33          (0.651756 0.228774 0.176651)
6.34          (0.657844 0.211075 0.173722)
6.35          (0.664602 0.183282 0.167104)
6.36          (0.665777 0.163359 0.162376)
6.37          (0.68003 0.122188 0.15475)
6.38          (0.689929 0.0896592 0.145975)
6.39          (0.689079 0.0793658 0.135548)
6.4           (0.697688 0.0549223 0.120942)
6.41          (0.695056 0.0328608 0.108456)
6.42          (0.695441 0.00807093 0.0943227)
6.43          (0.697798 -0.0218673 0.0788423)
6.44          (0.696669 -0.0367967 0.0632074)
6.45          (0.699225 -0.0580373 0.047314)
6.46          (0.697 -0.0708493 0.0309818)
6.47          (0.695829 -0.0860927 0.0137936)
6.48          (0.695351 -0.0944361 -0.00290152)
6.49          (0.68805 -0.0961603 -0.0202318)
6.5           (0.683595 -0.0803471 -0.0352722)
6.51          (0.685463 -0.0899341 -0.0495022)
6.52          (0.685448 -0.094469 -0.0631182)
6.53          (0.653683 -0.123647 -0.0705455)
6.54          (0.660771 -0.126388 -0.0826073)
6.55          (0.673382 -0.162497 -0.0911321)
6.56          (0.677383 -0.160808 -0.101694)
6.57          (0.683219 -0.156203 -0.112292)
6.58          (0.694436 -0.161139 -0.120566)
6.59          (0.710195 -0.13458 -0.127856)
6.6           (0.721901 -0.141416 -0.132986)
6.61          (0.719401 -0.109146 -0.136397)
6.62          (0.726067 -0.106528 -0.138944)
6.63          (0.730626 -0.100363 -0.139264)
6.64          (0.735861 -0.0974044 -0.137801)
6.65          (0.739041 -0.0893437 -0.135298)
6.66          (0.744124 -0.087992 -0.131778)
6.67          (0.748579 -0.0801359 -0.127905)
6.68          (0.747495 -0.0737312 -0.123162)
6.69          (0.738295 -0.0736417 -0.121817)
6.7           (0.739576 -0.0721766 -0.116564)