# Probe 0 (-1.5 0 0)
# Probe 1 (-1.5 2 0)
# Probe 2 (-1.5 -2 0)
# Time        0             1             2            
0.01          (0.918182 -0.00570578 -0.000424259) (1.0406 0.0284112 -0.000330195) (1.03942 -0.0282787 -0.000942068)
0.02          (0.882095 -0.0081849 -0.000560601) (1.05929 0.0397613 -0.000445298) (1.05736 -0.039478 -0.00106794)
0.03          (0.888364 -0.000927122 -0.00041542) (1.05258 0.0339607 -0.000539963) (1.05826 -0.0318691 -0.000619622)
0.04          (0.893647 -0.00204532 -0.000213851) (1.0528 0.0274272 -0.000176423) (1.05378 -0.0275775 -0.00051079)
0.05          (0.898299 -0.00352175 0.000377435) (1.05262 0.0263222 -0.000286342) (1.05261 -0.0269573 -0.000629599)
0.06          (0.902549 -0.00578726 0.000216483) (1.0512 0.0280136 -2.85864e-05) (1.05054 -0.0270579 -0.000739288)
0.07          (0.902952 -0.00340525 -2.86334e-05) (1.04806 0.0296724 -0.000427968) (1.05146 -0.0263585 -0.00042739)
0.08          (0.907267 -0.00214925 9.68926e-05) (1.04464 0.0325861 -0.000144997) (1.0479 -0.0294383 -0.000186345)
0.09          (0.910002 -0.000683042 0.000198876) (1.04146 0.0345359 -5.22503e-05) (1.04773 -0.0301479 -0.000352243)
0.1           (0.910655 -0.00445566 9.7705e-05) (1.0453 0.0325866 -0.000267376) (1.04387 -0.0313014 4.16408e-05)
0.11          (0.909439 -0.00289321 0.000200167) (1.04465 0.0312226 -0.00082729) (1.04651 -0.0298478 -0.000208239)
0.12          (0.908924 -0.00492607 0.000288319) (1.04772 0.0286931 -2.00964e-05) (1.04548 -0.0295379 -0.000473011)
0.13          (0.90906 -0.00426878 -4.0108e-05) (1.04713 0.0285268 -0.000456961) (1.04624 -0.0294693 -0.000458471)
0.14          (0.910528 -0.00498212 0.00019646) (1.04703 0.0282773 -5.25735e-05) (1.04464 -0.0303153 -0.000318071)
0.15          (0.910141 -0.007193 -7.82034e-05) (1.04982 0.0262056 0.000216941) (1.04353 -0.0298964 -0.00032005)
0.16          (0.909868 -0.00485985 -6.18953e-05) (1.04734 0.0270111 -0.000194352) (1.04777 -0.0266387 -2.27911e-07)
0.17          (0.909934 -0.00130264 0.000370391) (1.04223 0.0292754 -0.000252183) (1.05218 -0.0242304 0.000431847)
0.18          (0.912176 -0.00373708 0.000464311) (1.04278 0.0297478 -2.07412e-05) (1.04734 -0.0270212 0.000383057)
0.19          (0.914047 -0.00261626 0.000637263) (1.04173 0.0310965 0.000192127) (1.04541 -0.029173 0.000423094)
0.2           (0.9125 -0.00799324 0.000573523) (1.04746 0.0290613 0.000845468) (1.04078 -0.0318193 0.000400983)
0.21          (0.912144 -0.00919092 0.000367609) (1.04658 0.0302559 3.33852e-05) (1.04302 -0.0287848 -0.000242555)
0.22          (0.913413 -0.00872616 0.000239984) (1.04442 0.0314029 -4.55559e-06) (1.04147 -0.0311413 -3.46558e-06)
0.23          (0.912609 -0.00850397 0.000356938) (1.04572 0.0302616 -0.000150639) (1.04114 -0.0307106 -0.000385049)
0.24          (0.912739 -0.00610869 0.000287045) (1.04355 0.031272 -0.000190915) (1.04365 -0.0293675 -0.000471673)
0.25          (0.913678 -0.00453931 0.000449362) (1.04159 0.0320625 -0.000330791) (1.04455 -0.0295475 -0.000268415)
0.26          (0.912684 -0.00400387 0.000712594) (1.04145 0.0319479 -0.000296092) (1.04667 -0.0274339 0.000320042)
0.27          (0.913893 -0.00126214 0.000694437) (1.03823 0.0332638 -0.000206083) (1.04841 -0.0268784 0.000241105)
0.28          (0.916192 -0.00123035 0.000448177) (1.03839 0.0328632 -7.91201e-05) (1.04449 -0.0307003 -0.000170285)
0.29          (0.915731 -0.00361467 0.000380411) (1.04087 0.0321045 -0.0002098) (1.04149 -0.0317432 -0.000602394)
0.3           (0.914023 -0.00829542 0.000719992) (1.04607 0.0293952 -0.000446531) (1.03924 -0.0311234 -0.00080944)
0.31          (0.913035 -0.00429348 0.000253319) (1.04438 0.0296535 -0.00049634) (1.04313 -0.0290021 -0.00102323)
0.32          (0.91433 -0.00440837 0.000663269) (1.04312 0.0307435 0.000171901) (1.04241 -0.0293821 -0.000632957)
0.33          (0.913406 -0.00656154 0.000497653) (1.04711 0.0278498 0.000315685) (1.03995 -0.0304846 -0.00093609)
0.34          (0.915814 -0.00930502 0.000857406) (1.04616 0.0299515 0.000437811) (1.03655 -0.0334693 -0.0012365)
0.35          (0.9165 -0.00613346 0.000756287) (1.04073 0.0334153 0.000175278) (1.0401 -0.0320829 -0.00133547)
0.36          (0.917001 -0.00919991 0.000702111) (1.0438 0.0323722 0.000123997) (1.03618 -0.0333443 -0.00154628)
0.37          (0.916198 -0.00481171 0.000947628) (1.04039 0.0329177 -1.59736e-05) (1.04084 -0.0315137 -0.00147119)
0.38          (0.91537 -0.00771899 0.000998115) (1.04317 0.0318466 -8.13911e-05) (1.04045 -0.0301979 -0.00134436)
0.39          (0.91803 -0.00657043 0.000917294) (1.03946 0.0344619 -5.47476e-05) (1.04037 -0.0302541 -0.00126135)
0.4           (0.91647 -0.0073234 0.000758274) (1.04215 0.0328915 0.000357073) (1.0397 -0.0309093 -0.00102471)
0.41          (0.915682 -0.00781365 0.00100423) (1.0438 0.0311893 0.000239413) (1.03915 -0.0314959 -0.00105133)
0.42          (0.91419 -0.00400203 0.000950078) (1.04122 0.0313212 -0.00034435) (1.04389 -0.0287582 -0.00188989)
0.43          (0.918562 -0.00313353 0.0011634) (1.03615 0.0343744 -0.000313372) (1.04357 -0.0287796 -0.00117143)
0.44          (0.917766 -0.0059627 0.00132774) (1.04016 0.0324168 -9.1542e-05) (1.04089 -0.0301638 -0.00116212)
0.45          (0.917888 -0.00299111 0.00127235) (1.03713 0.0347254 0.000225786) (1.04281 -0.0305704 -0.00128163)
0.46          (0.91909 -0.00855725 0.000966587) (1.04181 0.033057 7.95483e-05) (1.03741 -0.032534 -0.0022608)
0.47          (0.918236 -0.00666667 0.00102665) (1.04048 0.0336963 3.82988e-05) (1.03873 -0.0324544 -0.00211813)
0.48          (0.918189 -0.00769789 0.00126723) (1.04312 0.03169 0.000195068) (1.03641 -0.0342325 -0.00129673)
0.49          (0.920401 -0.00353473 0.00125954) (1.03787 0.034482 -0.000252746) (1.03842 -0.0336272 -0.00204421)
0.5           (0.920856 -0.0023194 0.00157761) (1.03461 0.0370292 -0.00010299) (1.04081 -0.0324649 -0.00164813)
0.51          (0.921861 -0.0034766 0.00160773) (1.03504 0.0370985 -0.000356911) (1.03943 -0.032834 -0.00185444)
0.52          (0.922854 -0.00567073 0.00142405) (1.03583 0.037949 0.000516578) (1.03657 -0.0347328 -0.0018298)
0.53          (0.921439 -0.00367408 0.00130323) (1.03529 0.0373752 0.000141595) (1.03972 -0.033007 -0.00261134)
0.54          (0.922975 0.000651636 0.00137138) (1.03126 0.0391257 2.11681e-05) (1.04114 -0.0339418 -0.00277469)
0.55          (0.923257 -0.00706336 0.00163793) (1.03856 0.0359083 0.000477327) (1.03411 -0.0360854 -0.00282412)
0.56          (0.923131 -0.00700266 0.00171277) (1.03986 0.0346891 0.000184603) (1.03347 -0.0365061 -0.00332376)
0.57          (0.922977 -0.0047485 0.00171507) (1.03741 0.0358517 -1.26152e-05) (1.03703 -0.0345069 -0.00332532)
0.58          (0.923232 -0.00744979 0.00161382) (1.04051 0.0340657 0.000250003) (1.03543 -0.034391 -0.00360783)
0.59          (0.92266 -0.00460913 0.0018114) (1.03868 0.0346584 0.000261653) (1.03802 -0.034153 -0.00367245)
0.6           (0.923377 -0.0056795 0.00206975) (1.04011 0.034513 0.000149687) (1.03436 -0.0373289 -0.00394865)
0.61          (0.923769 -0.0091112 0.002021) (1.04142 0.035409 0.000358842) (1.03235 -0.0380797 -0.00414428)
0.62          (0.925622 -0.0074136 0.00194985) (1.03964 0.036896 -1.75955e-05) (1.03242 -0.0381485 -0.00316717)
0.63          (0.924115 -0.00445731 0.00190758) (1.03654 0.0389394 0.000402606) (1.03792 -0.0346466 -0.0036555)
0.64          (0.926169 -0.00649567 0.00244271) (1.03725 0.0387724 0.000874002) (1.0349 -0.0369621 -0.00387625)
0.65          (0.928787 -0.012168 0.00275418) (1.04065 0.0380471 0.00067202) (1.02899 -0.0391374 -0.00406332)
0.66          (0.926157 -0.0135589 0.00280749) (1.04371 0.0368385 0.000493467) (1.02914 -0.0392315 -0.00493011)
0.67          (0.926011 -0.00972482 0.00281221) (1.04029 0.0393126 0.0010869) (1.03347 -0.0372618 -0.00525209)
0.68          (0.925961 -0.0070421 0.00302894) (1.0396 0.0390083 0.00169171) (1.03613 -0.0363364 -0.00518658)
0.69          (0.927014 -0.00763335 0.00285773) (1.03916 0.0395026 0.00148738) (1.03627 -0.0359982 -0.0052518)
0.7           (0.922936 -0.00619156 0.00288592) (1.04147 0.0381104 0.00167158) (1.03952 -0.0343774 -0.00578467)
0.71          (0.924961 -0.00355544 0.00327871) (1.03846 0.0409024 0.00173285) (1.03988 -0.0359643 -0.00592195)
0.72          (0.930168 -0.00276322 0.00264926) (1.03267 0.0450066 0.00147975) (1.03879 -0.0372562 -0.00605064)
0.73          (0.931249 -0.00665283 0.00259031) (1.03626 0.0445987 0.00189964) (1.03478 -0.038671 -0.00633429)
0.74          (0.93107 -0.0033515 0.00314074) (1.03364 0.0456187 0.00197686) (1.03935 -0.0366462 -0.00602725)
0.75          (0.931542 -0.000577094 0.00354016) (1.03331 0.0463865 0.00158038) (1.03916 -0.0381781 -0.0063175)
0.76          (0.931049 -0.000883451 0.00343131) (1.03514 0.0453337 0.00172858) (1.04022 -0.0378073 -0.00647155)
0.77          (0.931436 -0.00517181 0.00379759) (1.03958 0.0434077 0.00243778) (1.03898 -0.0366732 -0.00641057)
0.78          (0.931166 -0.0019668 0.00402571) (1.03644 0.0457094 0.00236819) (1.04331 -0.0348423 -0.00623361)
0.79          (0.933427 -0.000325646 0.00379794) (1.03479 0.0464253 0.00265841) (1.04467 -0.0339614 -0.00641883)
0.8           (0.935218 -0.00236689 0.0043629) (1.03663 0.046627 0.00321447) (1.04183 -0.0360199 -0.00564402)
0.81          (0.934773 -0.000385565 0.00446495) (1.03848 0.0448786 0.00378169) (1.04253 -0.0371954 -0.00590261)
0.82          (0.935615 -0.00109054 0.00500547) (1.03857 0.0460636 0.00318109) (1.04375 -0.0363814 -0.00598897)
0.83          (0.935057 -0.00638876 0.00520981) (1.04571 0.0416482 0.00333484) (1.04088 -0.0361588 -0.00564362)
0.84          (0.936549 -0.00513568 0.00497561) (1.04496 0.0427762 0.0031754) (1.04184 -0.0361838 -0.00592318)
0.85          (0.93715 -0.00351749 0.00540711) (1.04578 0.0423316 0.003135) (1.04289 -0.0363382 -0.00498931)
0.86          (0.93833 -0.00211998 0.00564245) (1.04454 0.0434678 0.00346889) (1.04443 -0.0354648 -0.00532957)
0.87          (0.938921 -0.00745324 0.00597097) (1.04734 0.0442558 0.00344714) (1.0434 -0.0343089 -0.0046977)
0.88          (0.9414 -0.00399748 0.00667869) (1.0449 0.0451687 0.00411051) (1.04577 -0.0339725 -0.00410539)
0.89          (0.942704 -0.0082073 0.00684912) (1.04848 0.0439103 0.00401116) (1.0436 -0.0343501 -0.00428521)
0.9           (0.944876 -0.00475235 0.00679599) (1.04715 0.044487 0.00414779) (1.04438 -0.0359275 -0.00322192)
0.91          (0.943452 -0.00590501 0.00695024) (1.0504 0.0424867 0.00385437) (1.04677 -0.0340196 -0.00256647)
0.92          (0.944794 -0.00348063 0.0075446) (1.04895 0.0428866 0.00338059) (1.04904 -0.0335545 -0.00236241)
0.93          (0.948029 -0.00660331 0.00827279) (1.05108 0.0419538 0.00284097) (1.04585 -0.0343435 -0.00160998)
0.94          (0.950158 -0.00895581 0.00797257) (1.05364 0.0412285 0.00307001) (1.04375 -0.0348994 -0.000891128)
0.95          (0.949961 -0.0108631 0.00825359) (1.05553 0.0409002 0.00304297) (1.0459 -0.0323088 -0.00074311)
0.96          (0.950702 -0.00589889 0.00923559) (1.05212 0.041923 0.00278017) (1.05076 -0.0311812 0.000336996)
0.97          (0.953946 -0.0069175 0.0097235) (1.05422 0.0406355 0.00239982) (1.04737 -0.0331466 0.000840529)
0.98          (0.951669 -0.0101912 0.00985191) (1.05957 0.0377647 0.00258714) (1.04944 -0.0299247 0.00122834)
0.99          (0.954047 -0.00919891 0.0101759) (1.05838 0.038333 0.00151778) (1.05157 -0.0275047 0.00148225)
1             (0.954951 -0.0104102 0.0104589) (1.05938 0.037533 0.00107996) (1.05256 -0.0260457 0.001736)
1.01          (0.95629 -0.0120488 0.0102826) (1.06206 0.0363531 0.000439264) (1.0494 -0.0284203 0.00225335)
1.02          (0.957371 -0.0138683 0.0107849) (1.06316 0.0354722 -0.000252739) (1.05051 -0.0266082 0.0032566)
1.03          (0.95852 -0.0176676 0.0113302) (1.06725 0.0334206 -0.000277934) (1.04794 -0.0267941 0.00358716)
1.04          (0.959753 -0.0127619 0.011363) (1.06497 0.0327817 -0.00149572) (1.05142 -0.0261176 0.00429837)
1.05          (0.961561 -0.0170052 0.0113405) (1.07045 0.0295976 -0.00218374) (1.04682 -0.027027 0.00458003)
1.06          (0.963401 -0.0157956 0.0109442) (1.06892 0.0299024 -0.00277603) (1.04922 -0.0256669 0.00583873)
1.07          (0.964822 -0.0145968 0.0108745) (1.06813 0.0297674 -0.00414372) (1.05093 -0.0237205 0.00669858)
1.08          (0.96587 -0.0156586 0.0109089) (1.07098 0.0271032 -0.00534044) (1.04931 -0.0244 0.00757928)
1.09          (0.967232 -0.0148119 0.0110972) (1.07034 0.0265807 -0.00641648) (1.05027 -0.0234189 0.00845595)
1.1           (0.970397 -0.012505 0.0106611) (1.06517 0.0298324 -0.00763223) (1.05339 -0.0212743 0.0100782)
1.11          (0.97142 -0.0137161 0.0107286) (1.06599 0.029256 -0.00868736) (1.05386 -0.0187347 0.0104278)
1.12          (0.971002 -0.0117865 0.00960853) (1.06756 0.0263716 -0.00941531) (1.05486 -0.018496 0.0110371)
1.13          (0.97247 -0.0115991 0.0087629) (1.06664 0.0270901 -0.0107889) (1.05392 -0.0194734 0.0110343)
1.14          (0.971742 -0.0148865 0.00777307) (1.07004 0.0247626 -0.0119788) (1.05369 -0.01751 0.0114953)
1.15          (0.972493 -0.0149996 0.00638642) (1.07074 0.0242153 -0.0135737) (1.0514 -0.0183972 0.01146)
1.16          (0.975102 -0.011973 0.00593602) (1.06809 0.0251249 -0.0146551) (1.05183 -0.0179847 0.0119487)
1.17          (0.97543 -0.0128308 0.00443512) (1.06982 0.0237596 -0.0161636) (1.05129 -0.0169559 0.0125166)
1.18          (0.973852 -0.0136307 0.00343793) (1.07288 0.0213638 -0.0176542) (1.05234 -0.0145727 0.0133334)
1.19          (0.975053 -0.0157881 0.00194142) (1.0757 0.0196964 -0.0184278) (1.04741 -0.0173501 0.0129234)
1.2           (0.976915 -0.0148848 0.000151806) (1.07392 0.0207606 -0.0197729) (1.04615 -0.0172827 0.0133661)
1.21          (0.978343 -0.0110853 -0.00101262) (1.06915 0.023248 -0.021061) (1.0495 -0.0147191 0.0138078)
1.22          (0.977273 -0.00978693 -0.00260091) (1.06858 0.0232849 -0.0220195) (1.05082 -0.0129836 0.0141817)
1.23          (0.976922 -0.0119175 -0.00453678) (1.07255 0.0203196 -0.0236853) (1.04727 -0.0140568 0.0136477)
1.24          (0.978604 -0.012719 -0.00648023) (1.07193 0.0213469 -0.0241694) (1.04492 -0.0151005 0.0142815)
1.25          (0.978877 -0.0126829 -0.0082928) (1.07037 0.0220775 -0.0252376) (1.04588 -0.0130001 0.0150543)
1.26          (0.978365 -0.0107838 -0.0106487) (1.07025 0.0217064 -0.0266883) (1.04489 -0.0138729 0.0153966)
1.27          (0.977043 -0.00686686 -0.0125366) (1.06689 0.0238385 -0.0275731) (1.04794 -0.0115932 0.0137572)
1.28          (0.975032 -0.00389794 -0.0144772) (1.06718 0.0227287 -0.0277533) (1.04957 -0.0100031 0.012919)
1.29          (0.97518 -0.00420252 -0.0164844) (1.06669 0.0237908 -0.0281007) (1.04868 -0.00976465 0.0133716)
1.3           (0.975793 -0.00703621 -0.018119) (1.06883 0.0233363 -0.0284161) (1.04422 -0.0117482 0.0133355)
1.31          (0.974577 -0.0038619 -0.0197489) (1.06741 0.0246458 -0.0287621) (1.04423 -0.0124308 0.0131146)
1.32          (0.973946 -0.00329339 -0.0216419) (1.06537 0.0267328 -0.0292229) (1.04453 -0.0113857 0.0130438)
1.33          (0.971608 -0.00222398 -0.0235141) (1.06678 0.0252922 -0.0291181) (1.04484 -0.0101656 0.0126255)
1.34          (0.970389 -0.000376548 -0.0253218) (1.06437 0.0272545 -0.0289284) (1.04653 -0.00862985 0.0126312)
1.35          (0.968877 -0.00492314 -0.0272448) (1.068 0.0267752 -0.0285687) (1.04327 -0.00870299 0.0127222)
1.36          (0.966199 -0.000771949 -0.0284944) (1.067 0.0268411 -0.0276436) (1.04561 -0.00785231 0.0118712)
1.37          (0.965661 0.00575139 -0.0298199) (1.06026 0.0300375 -0.0268392) (1.05156 -0.0047214 0.0111568)
1.38          (0.964268 0.00479248 -0.0314952) (1.0618 0.0288612 -0.0272534) (1.0505 -0.00414965 0.0106306)
1.39          (0.965477 0.000669828 -0.032747) (1.06298 0.030254 -0.0264126) (1.04463 -0.00639803 0.0101113)
1.4           (0.963135 0.000798328 -0.0337823) (1.06608 0.0282016 -0.0252975) (1.04322 -0.00653704 0.00970329)
1.41          (0.959759 0.0024358 -0.0345004) (1.0678 0.0269328 -0.0240186) (1.04339 -0.00750208 0.00914143)
1.42          (0.960641 0.00665018 -0.0348901) (1.06091 0.0314751 -0.0226983) (1.0459 -0.00654802 0.00828101)
1.43          (0.960921 0.0102918 -0.0355829) (1.05846 0.0307717 -0.0217337) (1.04748 -0.00555002 0.00822908)
1.44          (0.959772 0.00600759 -0.0357431) (1.0619 0.0306025 -0.0198735) (1.04335 -0.00716149 0.00833325)
1.45          (0.958517 0.00526594 -0.0354819) (1.06266 0.0302956 -0.0184395) (1.0431 -0.00615813 0.00704036)
1.46          (0.956828 0.00467422 -0.0353606) (1.06249 0.0310826 -0.0162202) (1.04271 -0.00687305 0.00671232)
1.47          (0.956756 0.0116612 -0.0348469) (1.05658 0.0325822 -0.0146328) (1.04887 -0.00412392 0.00654221)
1.48          (0.953165 0.0101207 -0.0342045) (1.05972 0.0308155 -0.0125639) (1.04892 -0.0038516 0.00648779)
1.49          (0.953507 0.0108209 -0.0338815) (1.05834 0.031582 -0.0113385) (1.04756 -0.00494278 0.00614702)
1.5           (0.952655 0.0127086 -0.0331963) (1.05743 0.030823 -0.00968952) (1.04903 -0.00395639 0.00600591)
1.51          (0.953062 0.0100413 -0.0319317) (1.05817 0.0301706 -0.00786197) (1.04559 -0.0068488 0.00563443)
1.52          (0.949492 0.0106044 -0.0311708) (1.05926 0.0285536 -0.00562196) (1.04946 -0.00403068 0.00595514)
1.53          (0.947773 0.0105465 -0.030044) (1.05932 0.028082 -0.00415391) (1.05011 -0.00366783 0.00646113)
1.54          (0.948199 0.00907058 -0.0282957) (1.05992 0.0272113 -0.00189634) (1.04747 -0.00545553 0.00674302)
1.55          (0.947216 0.0116077 -0.0269033) (1.05727 0.026871 -0.000346874) (1.05113 -0.00431844 0.00663291)
1.56          (0.947401 0.0134626 -0.0256906) (1.05516 0.026916 0.00117343) (1.0525 -0.00432483 0.00652364)
1.57          (0.947004 0.0104633 -0.0241396) (1.05652 0.0254636 0.0026897) (1.05103 -0.00400249 0.00648329)
1.58          (0.944117 0.00801865 -0.0223172) (1.06052 0.0221274 0.004107) (1.0502 -0.00443661 0.00687984)
1.59          (0.944897 0.00830827 -0.0210421) (1.05779 0.0228956 0.00517779) (1.05115 -0.00407446 0.0069188)
1.6           (0.945859 0.00744016 -0.0191364) (1.05768 0.0217087 0.00690047) (1.0491 -0.00622657 0.00726344)
1.61          (0.94582 0.00611358 -0.0174182) (1.05907 0.0190766 0.00815121) (1.04806 -0.0073044 0.00750412)
1.62          (0.943636 0.0091546 -0.0154487) (1.05724 0.0177188 0.00908635) (1.05244 -0.00669876 0.00846126)
1.63          (0.94515 0.0062624 -0.0133891) (1.05691 0.0174129 0.00965598) (1.05022 -0.00800628 0.00847464)
1.64          (0.94795 0.00376941 -0.0115295) (1.05787 0.0159859 0.0107793) (1.045 -0.0121377 0.0097918)
1.65          (0.946295 0.00282266 -0.00984886) (1.05921 0.0145069 0.0118897) (1.04395 -0.0140576 0.00990506)
1.66          (0.944036 0.000250262 -0.00805319) (1.0626 0.0106216 0.0124045) (1.04367 -0.0136246 0.010136)
1.67          (0.945117 0.00454711 -0.00609355) (1.0582 0.0106623 0.0123939) (1.04713 -0.0132429 0.0112431)
1.68          (0.947084 0.000530275 -0.0047893) (1.05868 0.0102856 0.0124122) (1.04285 -0.0156827 0.011656)
1.69          (0.949486 0.000976864 -0.00314798) (1.0546 0.0116656 0.0132187) (1.04451 -0.0151896 0.0129514)
1.7           (0.947338 -0.00312739 -0.00136734) (1.05935 0.00853025 0.0135831) (1.04229 -0.0167402 0.0133388)
1.71          (0.94672 -0.00481283 1.84894e-05) (1.06159 0.00551493 0.0128612) (1.04019 -0.0191335 0.0135419)
1.72          (0.947962 -0.00200982 0.00153855) (1.05734 0.00696083 0.0130262) (1.04292 -0.0185846 0.014194)
1.73          (0.949917 -0.0033987 0.00322856) (1.05618 0.0072474 0.0123502) (1.04135 -0.0204671 0.0154797)
1.74          (0.950489 -0.00263197 0.00509157) (1.05481 0.00692509 0.0117297) (1.0408 -0.0219771 0.0156948)
1.75          (0.949723 -0.0035627 0.00664863) (1.05452 0.00649083 0.0108242) (1.04264 -0.0208094 0.0165521)
1.76          (0.948367 -0.00346064 0.00819088) (1.05576 0.00465905 0.0109998) (1.04413 -0.0204782 0.0171096)
1.77          (0.948317 -0.00708744 0.00911295) (1.05848 0.00338777 0.0109237) (1.04145 -0.022493 0.018276)
1.78          (0.95068 -0.00532384 0.0104912) (1.05413 0.005746 0.0109141) (1.04214 -0.0232286 0.018376)
1.79          (0.950552 -0.00576765 0.0117493) (1.05472 0.00614416 0.00992503) (1.04017 -0.0259254 0.0182323)
1.8           (0.950215 -0.00625452 0.0122014) (1.0545 0.00612244 0.00926545) (1.03984 -0.0271944 0.0183605)
1.81          (0.949955 -0.00855366 0.0129924) (1.05638 0.00563354 0.0083373) (1.0383 -0.0285717 0.0190409)
1.82          (0.953167 -0.00997319 0.0138835) (1.05428 0.00750865 0.00737445) (1.03614 -0.0311431 0.0188893)
1.83          (0.951057 -0.00578984 0.0147786) (1.05204 0.00858143 0.00706852) (1.04168 -0.0290246 0.0199857)
1.84          (0.94979 -0.00588619 0.0157428) (1.05288 0.008528 0.00664564) (1.04213 -0.0297326 0.0201033)
1.85          (0.950691 -0.00437813 0.0162888) (1.05114 0.00963847 0.00590065) (1.04285 -0.030516 0.0189323)
1.86          (0.949616 -0.00584183 0.0163751) (1.05437 0.0081188 0.00566604) (1.04165 -0.0317059 0.018888)
1.87          (0.949783 -0.00664949 0.0172488) (1.05323 0.00957263 0.00513382) (1.04228 -0.032675 0.019131)
1.88          (0.949752 -0.00752814 0.0176818) (1.05364 0.0106849 0.00527989) (1.04219 -0.033348 0.0194742)
1.89          (0.950436 -0.00541694 0.017925) (1.05006 0.0145559 0.00458791) (1.04298 -0.0350301 0.0180785)
1.9           (0.949588 -0.00153118 0.0184126) (1.04822 0.0155685 0.00429308) (1.04722 -0.0338173 0.0175606)
1.91          (0.94682 -0.00406703 0.0187852) (1.05309 0.0127515 0.00385112) (1.04856 -0.0320976 0.0177054)
1.92          (0.94858 -0.00697503 0.0193657) (1.05565 0.012778 0.00412468) (1.04451 -0.0357874 0.0172117)
1.93          (0.947327 -0.00583677 0.019604) (1.05568 0.0137655 0.00425015) (1.04647 -0.0357456 0.0159206)
1.94          (0.945848 -0.00607916 0.0195996) (1.05543 0.0152724 0.00391912) (1.04866 -0.0354507 0.0154325)
1.95          (0.945134 -0.00570146 0.0199728) (1.05462 0.0179188 0.00468568) (1.04983 -0.0371196 0.0150919)
1.96          (0.945894 -0.00743687 0.020088) (1.05433 0.0194032 0.00446856) (1.05007 -0.037332 0.0140751)
1.97          (0.945135 -0.00376296 0.0197903) (1.05289 0.0202589 0.00423512) (1.05341 -0.0374583 0.0127909)
1.98          (0.944571 -0.00745691 0.0191755) (1.05539 0.0209983 0.00426351) (1.05223 -0.0382499 0.0115831)
1.99          (0.9414 -0.00761327 0.0192993) (1.05694 0.0214522 0.00478586) (1.05551 -0.0374262 0.00998415)
2             (0.939887 -0.0085653 0.0194343) (1.05807 0.0215406 0.0049599) (1.05729 -0.037016 0.00878167)
2.01          (0.938406 -0.0118988 0.0195297) (1.06022 0.0220438 0.00612608) (1.0583 -0.0369813 0.00746688)
2.02          (0.937171 -0.00964861 0.0194756) (1.05764 0.0243902 0.00600392) (1.06293 -0.0355337 0.00660079)
2.03          (0.936382 -0.0075683 0.0192754) (1.05484 0.0266765 0.00623925) (1.06776 -0.0338875 0.00513887)
2.04          (0.937355 -0.00558562 0.0187386) (1.05157 0.0296241 0.00636128) (1.07016 -0.0342984 0.00384606)
2.05          (0.936057 -0.00455893 0.0183044) (1.05009 0.0311959 0.00632547) (1.0743 -0.0326379 0.00207526)
2.06          (0.935574 -0.00334801 0.0177935) (1.04909 0.0315957 0.00673294) (1.07639 -0.0335201 0.000198439)
2.07          (0.932457 -0.00648851 0.0174698) (1.05319 0.029299 0.00668157) (1.07838 -0.0322805 -0.000970178)
2.08          (0.92773 -0.00737761 0.0168542) (1.05502 0.0291253 0.00653762) (1.0819 -0.0313101 -0.00216102)
2.09          (0.926532 -0.00540721 0.0161705) (1.05257 0.0299133 0.00650624) (1.08724 -0.0287072 -0.00378821)
2.1           (0.926379 -0.00396438 0.0158964) (1.04952 0.0322015 0.00741844) (1.09008 -0.0287003 -0.00533505)
2.11          (0.925962 -0.00854599 0.0152151) (1.05177 0.0323307 0.0070869) (1.08774 -0.030944 -0.00627158)
2.12          (0.922009 -0.00548831 0.0142194) (1.05155 0.0309914 0.00677859) (1.09536 -0.026492 -0.00798363)
2.13          (0.92212 -0.0058098 0.013311) (1.04878 0.0334715 0.00700919) (1.09736 -0.026285 -0.00990715)
2.14          (0.921878 -0.00838623 0.0127217) (1.04787 0.0352812 0.00712907) (1.09807 -0.026021 -0.0112004)
2.15          (0.918794 -0.0105283 0.011999) (1.04985 0.0334831 0.00649188) (1.10039 -0.0237703 -0.0124009)
2.16          (0.916483 -0.0154946 0.0111063) (1.05215 0.0325325 0.00584801) (1.10033 -0.0229143 -0.0137443)
2.17          (0.916265 -0.0159746 0.0102875) (1.05163 0.0329991 0.00458779) (1.09901 -0.0251726 -0.0154787)
2.18          (0.914155 -0.0146298 0.00951337) (1.05001 0.0332968 0.00411129) (1.10332 -0.0225275 -0.0166681)
2.19          (0.91236 -0.0172823 0.00865816) (1.05057 0.0335079 0.00338655) (1.1047 -0.0202897 -0.017387)
2.2           (0.910818 -0.0212274 0.00711256) (1.05247 0.0324333 0.00318161) (1.10404 -0.0202824 -0.0187671)
2.21          (0.909798 -0.0212175 0.00677967) (1.05115 0.0320868 0.00154004) (1.10511 -0.0200956 -0.019543)
2.22          (0.909893 -0.0199089 0.00616816) (1.04885 0.0322945 0.000147374) (1.10502 -0.020938 -0.0204477)
2.23          (0.909632 -0.0242465 0.00512797) (1.05076 0.0319219 -0.000830419) (1.10198 -0.021253 -0.021957)
2.24          (0.906732 -0.0220417 0.00363957) (1.04889 0.0326864 -0.00179512) (1.1065 -0.0184219 -0.0218871)
2.25          (0.907027 -0.0242281 0.00309123) (1.04882 0.0327784 -0.00342339) (1.1045 -0.0191291 -0.0221446)
2.26          (0.904945 -0.0276682 0.0019902) (1.05258 0.0305326 -0.00445105) (1.10156 -0.01869 -0.0233543)
2.27          (0.902471 -0.028133 0.00135503) (1.05185 0.0307081 -0.00615893) (1.10189 -0.018377 -0.0232588)
2.28          (0.903121 -0.0287136 0.000141357) (1.05009 0.0315622 -0.00795374) (1.10018 -0.0182018 -0.0233659)
2.29          (0.902994 -0.0292336 -0.000845245) (1.05205 0.0288572 -0.00901746) (1.09761 -0.0191916 -0.0232199)
2.3           (0.903582 -0.0321938 -0.00189921) (1.05351 0.0280923 -0.0109926) (1.09258 -0.0212032 -0.0244982)
2.31          (0.904227 -0.0276765 -0.00254549) (1.04883 0.0304355 -0.0130784) (1.09448 -0.0196796 -0.0244122)
2.32          (0.902251 -0.0324478 -0.00348411) (1.05415 0.0280922 -0.0149114) (1.08963 -0.0205172 -0.0243769)
2.33          (0.903457 -0.030808 -0.00388277) (1.05242 0.0280119 -0.0153838) (1.08835 -0.0195526 -0.0244109)
2.34          (0.904601 -0.0290274 -0.00489732) (1.0501 0.0297195 -0.0167484) (1.08704 -0.0195267 -0.0242582)
2.35          (0.90185 -0.0330442 -0.00567652) (1.05499 0.0275096 -0.0188142) (1.08456 -0.0186761 -0.0236925)
2.36          (0.902384 -0.0319372 -0.00618625) (1.05626 0.0257688 -0.0203569) (1.08208 -0.0193746 -0.0229431)
2.37          (0.904502 -0.0300513 -0.00652892) (1.05429 0.0276965 -0.0215034) (1.07969 -0.0194816 -0.0231222)
2.38          (0.904628 -0.0267023 -0.00718517) (1.05471 0.0265608 -0.0228589) (1.07837 -0.0196921 -0.0225419)
2.39          (0.90497 -0.0266924 -0.00717899) (1.05569 0.0260041 -0.0238652) (1.07647 -0.0188674 -0.0220824)
2.4           (0.907747 -0.0301056 -0.0076925) (1.05733 0.0268074 -0.024658) (1.06901 -0.0219708 -0.0214638)
2.41          (0.908769 -0.0290321 -0.00771851) (1.05919 0.0251615 -0.0256243) (1.06643 -0.0222678 -0.0207872)
2.42          (0.908167 -0.0214702 -0.00851748) (1.05557 0.0264307 -0.0267202) (1.07044 -0.0201833 -0.020133)
2.43          (0.910737 -0.02268 -0.00854488) (1.05757 0.0266276 -0.0271126) (1.06542 -0.0215398 -0.0189281)
2.44          (0.912696 -0.0240616 -0.00883181) (1.05927 0.0268859 -0.0281848) (1.0616 -0.0221611 -0.0177369)
2.45          (0.915082 -0.0272614 -0.00902959) (1.06499 0.0240926 -0.0290414) (1.05329 -0.0252383 -0.0177384)
2.46          (0.915843 -0.023634 -0.00888295) (1.06379 0.0247712 -0.0293306) (1.05463 -0.0234025 -0.0164051)
2.47          (0.917886 -0.0200173 -0.00892968) (1.06227 0.0256587 -0.0293173) (1.05566 -0.0217417 -0.015493)
2.48          (0.921546 -0.0279218 -0.0086817) (1.06863 0.0242982 -0.0290137) (1.04474 -0.0273781 -0.0143273)
2.49          (0.922735 -0.0226998 -0.00864374) (1.06632 0.0258341 -0.030331) (1.04693 -0.0250365 -0.0131692)
2.5           (0.928511 -0.0195406 -0.00804302) (1.06413 0.027514 -0.0301273) (1.04346 -0.0285873 -0.0126131)
2.51          (0.930802 -0.019491 -0.00801913) (1.06616 0.0266933 -0.028638) (1.0414 -0.028972 -0.0110075)
2.52          (0.933323 -0.0130361 -0.00728851) (1.06202 0.0289159 -0.0286327) (1.04423 -0.0270925 -0.0100335)
2.53          (0.937502 -0.0116499 -0.00679214) (1.05964 0.0311206 -0.0277539) (1.04234 -0.0284485 -0.00860955)
2.54          (0.938952 -0.0100586 -0.00594937) (1.06176 0.0303949 -0.0270163) (1.04223 -0.0275606 -0.00786218)
2.55          (0.940845 -0.00705894 -0.00554761) (1.06099 0.0304453 -0.0259161) (1.04388 -0.0254832 -0.00697301)
2.56          (0.943746 -0.00662691 -0.00518655) (1.05949 0.0318755 -0.0252488) (1.04439 -0.024163 -0.00556531)
2.57          (0.945651 -0.00679931 -0.00418791) (1.06059 0.0322192 -0.0237479) (1.04283 -0.0255911 -0.00449638)
2.58          (0.948418 -0.00778898 -0.00376534) (1.06112 0.0328214 -0.0224565) (1.04096 -0.0258632 -0.00363986)
2.59          (0.952236 -0.0102328 -0.00280468) (1.06367 0.0320904 -0.0219409) (1.03564 -0.0285172 -0.00310004)
2.6           (0.953643 -0.00909524 -0.00204901) (1.06287 0.0325988 -0.0206997) (1.03787 -0.0267442 -0.00121763)
2.61          (0.955681 -0.009624 -0.00140572) (1.06427 0.031893 -0.0186495) (1.03644 -0.0274435 -0.000106205)
2.62          (0.958562 -0.00886591 -0.000275798) (1.06321 0.0320155 -0.0171927) (1.03541 -0.0279204 0.000521989)
2.63          (0.963072 -0.00715567 0.000630704) (1.05881 0.0346264 -0.0155551) (1.03637 -0.027242 0.000549686)
2.64          (0.9628 -0.00770709 0.00127879) (1.06061 0.0339896 -0.0140932) (1.03622 -0.0275254 0.00148441)
2.65          (0.962713 -0.00766241 0.00226789) (1.06081 0.033278 -0.0124479) (1.0378 -0.0266542 0.00231839)
2.66          (0.96452 -0.00428181 0.00317517) (1.05824 0.0335426 -0.0104243) (1.03926 -0.027043 0.00313391)
2.67          (0.96508 -0.00539398 0.00359334) (1.0579 0.0340648 -0.00877177) (1.03902 -0.0266898 0.00323867)
2.68          (0.966474 -0.00363289 0.00416769) (1.0546 0.0350821 -0.00741128) (1.04147 -0.0257833 0.003866)
2.69          (0.966001 -0.00194847 0.00477444) (1.05278 0.0352925 -0.00616281) (1.04459 -0.0245495 0.00417464)
2.7           (0.966946 -0.00551227 0.0057372) (1.05455 0.0338377 -0.00469928) (1.04165 -0.0253814 0.00432566)