# Probe 0 (-1.5 0 0)
# Probe 1 (-1.5 2 0)
# Probe 2 (-1.5 -2 0)
# Time        0             1             2            
0.01          (0.918836 -0.00979458 0.000223543) (1.04474 0.0264063 -0.000671921) (1.03414 -0.0294536 -0.000263448)
0.02          (0.884842 -0.0113848 0.000240768) (1.06115 0.039216 -0.000275759) (1.05049 -0.0428929 -0.000846543)
0.03          (0.890984 -0.00646952 7.03043e-05) (1.05658 0.0344098 0.000631196) (1.04917 -0.0369689 -0.000590475)
0.04          (0.896151 -0.00258214 -0.000120138) (1.05233 0.0302956 0.000546966) (1.04859 -0.0316902 -0.000614764)
0.05          (0.901649 -0.00677433 1.83143e-05) (1.05304 0.0287896 0.00060959) (1.04637 -0.0313577 -0.00108413)
0.06          (0.903463 -0.00993228 -0.000363245) (1.05609 0.0249438 0.000600935) (1.04844 -0.027235 0.000628841)
0.07          (0.902463 -0.0142193 -0.00019472) (1.05845 0.024278 0.000565762) (1.04579 -0.0269239 0.000308088)
0.08          (0.905146 -0.0147962 -0.000499374) (1.05734 0.025542 -0.000123503) (1.04171 -0.0300663 -0.000242274)
0.09          (0.904344 -0.00912586 -0.00117378) (1.05267 0.0272199 0.000488755) (1.04734 -0.0284348 -5.76602e-05)
0.1           (0.905836 -0.0111362 -0.000763265) (1.05447 0.025924 0.000428089) (1.04395 -0.0299284 -0.000355119)
0.11          (0.90757 -0.0104873 -0.000446459) (1.05584 0.0249742 0.000453198) (1.03984 -0.0333001 -0.00116621)
0.12          (0.908867 -0.00523868 -0.000175671) (1.05068 0.0269984 0.000878022) (1.04444 -0.0301314 -0.000829792)
0.13          (0.909778 -0.00142029 -0.00021821) (1.04576 0.0294441 0.000851028) (1.04849 -0.0278018 -0.000329302)
0.14          (0.90849 0.000494072 -0.000380178) (1.04598 0.0281275 0.000577009) (1.05041 -0.0269063 -0.000978138)
0.15          (0.911067 0.000392627 -0.000254494) (1.0435 0.0295381 -0.00050389) (1.04805 -0.0293029 0.000289886)
0.16          (0.911554 -0.00227854 0.0001098) (1.04491 0.0286645 0.000143744) (1.0465 -0.0289934 -0.000230556)
0.17          (0.911703 -0.00168275 -0.000425211) (1.04419 0.0283194 -4.98658e-05) (1.04691 -0.0279222 -0.000412223)
0.18          (0.913456 -0.00184928 -0.000378524) (1.0428 0.0298088 0.000137709) (1.04622 -0.0280466 0.00013562)
0.19          (0.913788 0.000605866 -0.000349815) (1.04016 0.0306901 7.59277e-05) (1.04932 -0.0255532 -0.000528107)
0.2           (0.914828 0.00176691 -1.11068e-05) (1.04047 0.0295258 0.000415038) (1.04862 -0.0260151 -0.000230431)
0.21          (0.914832 0.000917018 0.000545235) (1.04156 0.0289575 0.000712178) (1.04618 -0.0285502 0.00016373)
0.22          (0.918819 -0.00336121 0.000451313) (1.04513 0.0279029 0.000339724) (1.03901 -0.0311984 0.000177838)
0.23          (0.917834 -0.00021991 0.000192328) (1.04253 0.0289886 0.000164375) (1.04256 -0.0293911 -0.000495638)
0.24          (0.917491 -0.00111118 -0.000133778) (1.04362 0.0284884 0.000622296) (1.04061 -0.0317427 -0.00081896)
0.25          (0.918202 -0.0103539 -0.000520121) (1.0495 0.0277285 0.000799668) (1.03286 -0.034594 -0.00118266)
0.26          (0.916132 -0.00978072 -0.000375353) (1.05106 0.0252758 0.000944446) (1.03427 -0.0335814 -0.00101607)
0.27          (0.915124 -0.00737 -0.000136768) (1.04874 0.0254085 0.00084379) (1.03846 -0.0306186 -0.000195361)
0.28          (0.915021 -0.00327701 -0.000373836) (1.04397 0.02771 0.000660741) (1.04333 -0.0285624 0.00055678)
0.29          (0.913847 -0.00358689 -0.000393352) (1.04518 0.0270761 0.000320066) (1.0435 -0.0286082 0.000294052)
0.3           (0.915623 -0.00768538 -0.000328358) (1.04746 0.0261039 -0.000195185) (1.03851 -0.0306993 -5.83909e-05)
0.31          (0.915666 -0.00483401 4.06873e-05) (1.04522 0.0257026 -0.000383492) (1.04151 -0.0286547 -0.000367611)
0.32          (0.916391 -0.0037585 -0.000487117) (1.04278 0.0273652 -0.000224939) (1.04254 -0.0282903 -0.000145253)
0.33          (0.917808 -0.000679129 -0.000449509) (1.03818 0.0297685 -0.000183103) (1.04469 -0.0280209 0.000618329)
0.34          (0.916557 -0.00110925 -0.000347472) (1.03891 0.0291476 -0.000413253) (1.04557 -0.026543 -0.000261898)
0.35          (0.915147 -0.0028508 -0.000427291) (1.04177 0.0279296 0.000431132) (1.04426 -0.0274157 -0.00021926)
0.36          (0.915716 -0.00320874 -0.000243217) (1.04 0.0293914 0.000555789) (1.04466 -0.0271906 -0.000899193)
0.37          (0.916818 -0.00235645 -0.000211241) (1.03994 0.029863 0.000190128) (1.04233 -0.0295184 -0.0005917)
0.38          (0.918133 -0.00353267 -3.03985e-05) (1.03917 0.0305535 0.000601998) (1.04086 -0.0304561 -0.000766669)
0.39          (0.916223 -0.00660904 0.000302351) (1.04164 0.0297499 -0.00022364) (1.04031 -0.0299863 -0.00102924)
0.4           (0.919372 -0.00706752 -4.60479e-05) (1.04058 0.030368 2.71945e-05) (1.03793 -0.0306926 -0.000894112)
0.41          (0.919752 -0.00603463 0.000135106) (1.03933 0.0307127 6.25788e-06) (1.03816 -0.0309988 -0.000643607)
0.42          (0.92034 -0.00443435 -0.000233513) (1.03916 0.0301007 -0.000431324) (1.03805 -0.0311519 -0.000357719)
0.43          (0.921871 0.00146477 -0.000591475) (1.03148 0.0339336 -0.000434908) (1.04121 -0.0320699 -0.000139071)
0.44          (0.921455 -0.00308124 -0.000471238) (1.03576 0.0319444 -0.000566572) (1.03768 -0.033456 -0.000548338)
0.45          (0.920577 0.00324109 -0.000372152) (1.03046 0.03327 -0.000441138) (1.04554 -0.0280309 -7.73841e-06)
0.46          (0.920206 0.00283204 -0.000373033) (1.03148 0.0320897 -0.000214734) (1.04502 -0.0281039 -8.57235e-05)
0.47          (0.919552 -0.003087 -0.000223877) (1.03749 0.0287247 -0.000116394) (1.04104 -0.0287356 -0.000341641)
0.48          (0.922022 -0.00519125 -0.000200636) (1.03712 0.0295235 -0.000403856) (1.03661 -0.0309132 -0.000691869)
0.49          (0.921493 -0.00141107 -5.07026e-05) (1.03299 0.0301638 -0.000784179) (1.04203 -0.0287842 0.000270168)
0.5           (0.922052 -0.00277425 -0.000172516) (1.03417 0.0291773 1.73937e-05) (1.04054 -0.029076 -0.000223269)
0.51          (0.923678 -0.00336355 -0.000202765) (1.03199 0.0312087 -0.000778978) (1.03948 -0.0298067 -0.000260936)
0.52          (0.921526 -0.000795855 2.75182e-05) (1.03305 0.0296739 -0.000824042) (1.04277 -0.0273492 0.000292116)
0.53          (0.923006 0.0022221 -0.00066918) (1.02817 0.032202 -0.000679462) (1.04454 -0.0270025 0.0001031)
0.54          (0.922017 -0.00652622 -0.000656136) (1.03657 0.0280473 -0.000634364) (1.03558 -0.03098 -0.000734353)
0.55          (0.924244 -0.00497915 -0.000458495) (1.0337 0.0296338 -0.000737033) (1.03612 -0.0310716 -0.000860403)
0.56          (0.925808 -0.00450766 -0.000415818) (1.03153 0.0306247 -0.000746663) (1.03584 -0.0324054 -0.000765017)
0.57          (0.924347 -0.0066816 -0.000340262) (1.03465 0.0287181 -0.000801077) (1.03464 -0.0322892 -0.000901846)
0.58          (0.924389 -0.00552318 -0.000450715) (1.03318 0.0290655 -0.000768218) (1.03511 -0.0322455 -0.0012032)
0.59          (0.924567 -0.00207132 -0.000637188) (1.02769 0.0317073 -2.26012e-05) (1.04023 -0.0288833 -0.00103379)
0.6           (0.92358 -0.00507638 -0.000608167) (1.03172 0.0286541 -0.000988184) (1.0379 -0.0291604 -0.00100027)
0.61          (0.926556 -0.00461481 -0.000671673) (1.03078 0.0281374 -0.000776839) (1.03492 -0.0312829 -0.000763543)
0.62          (0.926146 -0.00368509 -0.000627557) (1.02887 0.028947 -0.00159301) (1.03536 -0.0316069 -0.00077457)
0.63          (0.925708 -0.00270397 -0.000362832) (1.03012 0.027287 -0.00124109) (1.03544 -0.0323256 -9.13862e-05)
0.64          (0.928277 -0.0051635 -0.000422211) (1.03031 0.0268236 -0.00132782) (1.03285 -0.0331854 0.00033642)
0.65          (0.928737 -0.00670582 -0.000225496) (1.02975 0.0282872 -0.00202012) (1.03061 -0.0344657 0.000597238)
0.66          (0.927532 -0.00301102 -0.000629893) (1.02695 0.0281473 -0.00158043) (1.03545 -0.0313839 0.000803297)
0.67          (0.926935 -0.00408999 -0.000851594) (1.02696 0.0286312 -0.0014635) (1.03509 -0.0314571 0.000456396)
0.68          (0.928605 -0.00499723 -0.000715984) (1.02669 0.0291152 -0.00104648) (1.03284 -0.0322996 0.000669226)
0.69          (0.929932 -0.00844504 -0.000514578) (1.02955 0.027621 -0.00173331) (1.02771 -0.0342503 0.000621078)
0.7           (0.933417 -0.00548283 -0.000445704) (1.02515 0.0289596 -0.00135054) (1.02797 -0.0360543 0.00178426)
0.71          (0.932302 -0.00329049 -0.000657125) (1.02035 0.0310256 -0.00203102) (1.03358 -0.0315498 0.00146248)
0.72          (0.930938 -0.00756363 -0.000619675) (1.02618 0.027494 -0.0027734) (1.02891 -0.0338409 0.00153383)
0.73          (0.935411 -0.00397865 -0.000912516) (1.02213 0.0293037 -0.0023137) (1.02613 -0.0370883 0.00183227)
0.74          (0.935324 -0.00533756 -0.000942962) (1.02075 0.0302735 -0.00201855) (1.02723 -0.0356646 0.00176116)
0.75          (0.938054 -0.00972399 -0.00125866) (1.02308 0.0282676 -0.00170166) (1.02125 -0.0379322 0.000425746)
0.76          (0.937604 -0.00759392 -0.0012278) (1.02044 0.0294505 -0.00142758) (1.02469 -0.0348744 0.000682494)
0.77          (0.935443 -0.00592848 -0.00107416) (1.02152 0.0272722 -0.00111329) (1.02693 -0.0334931 0.00174884)
0.78          (0.936634 -0.00659645 -0.00102837) (1.02101 0.027177 -0.00069361) (1.02653 -0.032716 0.00243317)
0.79          (0.936649 -0.00694823 -0.00113238) (1.02292 0.0251279 -0.000479704) (1.02469 -0.0334738 0.00263192)
0.8           (0.938123 -0.00749695 -0.00117676) (1.02139 0.0256219 -0.000437345) (1.02344 -0.0343015 0.00305235)
0.81          (0.937296 -0.012834 -0.00101568) (1.02727 0.021831 -0.000524961) (1.01863 -0.0363755 0.00371306)
0.82          (0.941546 -0.00897849 -0.000879488) (1.02037 0.0250382 -0.000803794) (1.01923 -0.0365711 0.00339082)
0.83          (0.946022 -0.00764855 -0.00138236) (1.01563 0.0280021 -0.00101544) (1.0168 -0.0383269 0.00349769)
0.84          (0.944128 -0.0118098 -0.00136412) (1.02018 0.0247099 -0.00137889) (1.016 -0.036317 0.00376601)
0.85          (0.944927 -0.0112803 -0.00103032) (1.01821 0.0265647 -2.35088e-05) (1.01655 -0.0356933 0.00489838)
0.86          (0.945818 -0.00571171 -0.00149727) (1.01267 0.0280754 0.000539264) (1.02147 -0.0337308 0.00515472)
0.87          (0.950221 -0.00523835 -0.00115711) (1.00779 0.0308357 0.00123084) (1.01967 -0.0351279 0.00542413)
0.88          (0.949745 -0.00308767 -0.00121995) (1.0059 0.0304097 0.00199706) (1.02371 -0.0323074 0.00615954)
0.89          (0.94994 -0.00708441 -0.00160467) (1.01187 0.0254332 0.00273266) (1.01965 -0.0327546 0.00618776)
0.9           (0.95123 -0.00861321 -0.00108499) (1.01371 0.0234571 0.00388496) (1.01664 -0.0336362 0.00680135)
0.91          (0.951116 -0.0106683 -0.000956611) (1.01388 0.023926 0.00432066) (1.01611 -0.0332356 0.00701072)
0.92          (0.952881 -0.0139164 -0.00116919) (1.01388 0.0243951 0.00496652) (1.01371 -0.0335798 0.00770963)
0.93          (0.955737 -0.0148823 -0.00115767) (1.01338 0.0242328 0.00554811) (1.01227 -0.0328175 0.00747885)
0.94          (0.957923 -0.0104322 -0.00144457) (1.00815 0.025158 0.00550226) (1.01519 -0.030667 0.00727095)
0.95          (0.957873 -0.0148533 -0.00135345) (1.01109 0.0246384 0.00687065) (1.01192 -0.0318118 0.00834975)
0.96          (0.96083 -0.0188073 -0.000744605) (1.01076 0.0255099 0.00852906) (1.01027 -0.0317869 0.00872676)
0.97          (0.962112 -0.0210222 -0.000691807) (1.01435 0.0223059 0.00934961) (1.0066 -0.0333724 0.00947321)
0.98          (0.966337 -0.0212568 -0.00108891) (1.01099 0.0247425 0.0104676) (1.00385 -0.0353731 0.0101108)
0.99          (0.966975 -0.0194858 -0.00167478) (1.00894 0.0251814 0.0117768) (1.00563 -0.0339399 0.00995235)
1             (0.968254 -0.0195318 -0.00179418) (1.0084 0.0246824 0.0135344) (1.00582 -0.0329262 0.00997981)
1.01          (0.968602 -0.0160499 -0.0021131) (1.00471 0.024808 0.0149335) (1.01217 -0.028863 0.0110437)
1.02          (0.970651 -0.0162924 -0.00284186) (1.00193 0.0263514 0.0157) (1.01264 -0.0283632 0.011297)
1.03          (0.971078 -0.0147921 -0.00342908) (1.00052 0.0265182 0.016711) (1.01471 -0.0269638 0.0103445)
1.04          (0.972169 -0.0192597 -0.00333712) (1.00405 0.0245248 0.0189559) (1.01199 -0.0267232 0.0106459)
1.05          (0.975325 -0.0201414 -0.0037886) (1.003 0.0239362 0.0215585) (1.01162 -0.027235 0.011992)
1.06          (0.974085 -0.0196444 -0.00395275) (1.00217 0.0244338 0.0230385) (1.01461 -0.0250814 0.0123901)
1.07          (0.975697 -0.0239216 -0.00412014) (1.00273 0.0255953 0.0241632) (1.01205 -0.0264236 0.0134045)
1.08          (0.977004 -0.0195645 -0.00472478) (0.99843 0.0273435 0.0259678) (1.0173 -0.0236349 0.0131202)
1.09          (0.977737 -0.022399 -0.00557232) (1.00131 0.0260075 0.027597) (1.01377 -0.0263705 0.0130919)
1.1           (0.979275 -0.0275253 -0.00608113) (1.00503 0.0246416 0.0299426) (1.00947 -0.0276723 0.0137045)
1.11          (0.979738 -0.0235443 -0.00742269) (1.00274 0.0253002 0.0321204) (1.0131 -0.0252562 0.0148717)
1.12          (0.979083 -0.022573 -0.0082044) (1.00207 0.0264398 0.0338702) (1.01528 -0.0243955 0.0146998)
1.13          (0.980963 -0.0252183 -0.0089807) (1.00266 0.0273011 0.0364589) (1.01243 -0.0272863 0.0143987)
1.14          (0.979072 -0.0262956 -0.0101508) (1.00603 0.0253233 0.0379361) (1.01288 -0.0269058 0.0143426)
1.15          (0.980841 -0.0216764 -0.0121718) (1.00052 0.026758 0.0395056) (1.01858 -0.0246738 0.0146291)
1.16          (0.979873 -0.0218185 -0.0128313) (1.00032 0.0274634 0.0414213) (1.02064 -0.0237531 0.0149114)
1.17          (0.983193 -0.0181407 -0.013746) (0.995272 0.0305615 0.042996) (1.02188 -0.0244828 0.0144623)
1.18          (0.982937 -0.0266968 -0.014713) (1.00101 0.0301016 0.0445474) (1.01629 -0.0279978 0.0147199)
1.19          (0.982758 -0.0235889 -0.0158091) (0.997274 0.0324464 0.046493) (1.0222 -0.0247929 0.0148291)
1.2           (0.981011 -0.0258544 -0.0172029) (1.00162 0.0298082 0.0486086) (1.02173 -0.0246108 0.0141382)
1.21          (0.977975 -0.0201102 -0.0181702) (1.0009 0.0281901 0.0503371) (1.02828 -0.0225641 0.0134831)
1.22          (0.977865 -0.025083 -0.018781) (1.0058 0.0269624 0.0526157) (1.02403 -0.02514 0.0136227)
1.23          (0.97714 -0.024627 -0.0201788) (1.00715 0.0259863 0.0534607) (1.02468 -0.0247048 0.0125222)
1.24          (0.977058 -0.0239917 -0.0213386) (1.00596 0.0282439 0.055492) (1.02535 -0.0259038 0.0127445)
1.25          (0.975599 -0.0239581 -0.0225553) (1.00712 0.0281189 0.0562929) (1.027 -0.0270247 0.0126251)
1.26          (0.974192 -0.0213714 -0.0230531) (1.00546 0.0281259 0.0564319) (1.03045 -0.0267267 0.0128337)
1.27          (0.973852 -0.0254159 -0.0235775) (1.00825 0.0275261 0.0573897) (1.02881 -0.027248 0.0113186)
1.28          (0.973147 -0.0201642 -0.023848) (1.00465 0.0288357 0.0576128) (1.0333 -0.0271165 0.0106183)
1.29          (0.966591 -0.0180469 -0.0246722) (1.00866 0.0252174 0.0585014) (1.03835 -0.02576 0.0101413)
1.3           (0.965565 -0.018886 -0.0246184) (1.00963 0.0257466 0.0590796) (1.03908 -0.0257585 0.0102596)
1.31          (0.968424 -0.0199728 -0.0244279) (1.00746 0.0282481 0.0595438) (1.03637 -0.0286202 0.009529)
1.32          (0.967852 -0.0228107 -0.024619) (1.0132 0.0250352 0.0596522) (1.03121 -0.0334335 0.00842372)
1.33          (0.966219 -0.0161339 -0.0249398) (1.00691 0.0285714 0.059758) (1.03814 -0.0323755 0.00741745)
1.34          (0.962238 -0.0123068 -0.0245822) (1.0071 0.0274204 0.0596917) (1.04389 -0.029718 0.00624724)
1.35          (0.960194 -0.0120102 -0.0242275) (1.0079 0.0263321 0.0590334) (1.04576 -0.0300879 0.0053842)
1.36          (0.957539 -0.0138842 -0.0233803) (1.01323 0.0214982 0.0586505) (1.04454 -0.03209 0.00485215)
1.37          (0.957176 -0.00885538 -0.0230567) (1.00766 0.0248875 0.0569886) (1.0495 -0.0312534 0.00456228)
1.38          (0.959268 -0.0117863 -0.0223206) (1.00963 0.0252382 0.056394) (1.0426 -0.0377919 0.00469659)
1.39          (0.959915 -0.0103004 -0.0215732) (1.00545 0.0278457 0.0552471) (1.04409 -0.0390265 0.00397651)
1.4           (0.957186 -0.00933532 -0.0202275) (1.0103 0.0230411 0.0540124) (1.04254 -0.0413275 0.00199121)
1.41          (0.955106 -0.00634577 -0.0188895) (1.01069 0.0209534 0.0522959) (1.04518 -0.0412928 0.00205272)
1.42          (0.953308 -0.00372481 -0.0172249) (1.00932 0.0202519 0.0508023) (1.04885 -0.0406012 0.00125094)
1.43          (0.951626 -0.00095499 -0.0154957) (1.00756 0.0203325 0.0493304) (1.05206 -0.0403279 0.000467942)
1.44          (0.949698 -0.000100956 -0.0137628) (1.00675 0.0203345 0.0465229) (1.05428 -0.0402235 -0.000239601)
1.45          (0.948157 0.00717373 -0.0122574) (1.00228 0.021917 0.0444843) (1.05974 -0.0388912 -0.000665801)
1.46          (0.948464 0.00126747 -0.0102243) (1.00658 0.0201823 0.0424676) (1.05533 -0.0415129 -0.00224987)
1.47          (0.945748 0.000114487 -0.00849814) (1.00982 0.0181134 0.039872) (1.0541 -0.0437905 -0.0026206)
1.48          (0.946763 -0.000855938 -0.00677002) (1.01009 0.0166656 0.0377727) (1.0519 -0.0470002 -0.00256234)
1.49          (0.948345 -0.00208361 -0.00443041) (1.00928 0.0185193 0.0354176) (1.0475 -0.0513439 -0.00293669)
1.5           (0.946581 0.00299644 -0.00239068) (1.00577 0.0188264 0.0328074) (1.0535 -0.0492279 -0.00387608)
1.51          (0.94522 0.00261757 -2.18639e-05) (1.00747 0.0179045 0.0301948) (1.05337 -0.0490924 -0.00472049)
1.52          (0.945318 0.00200856 0.00181813) (1.00883 0.016242 0.0276208) (1.05149 -0.051237 -0.00484619)
1.53          (0.944056 0.0023866 0.00369178) (1.00908 0.0161709 0.0246596) (1.05132 -0.0523739 -0.00572149)
1.54          (0.944729 0.0010432 0.00591689) (1.01053 0.0152391 0.0219365) (1.0494 -0.0533648 -0.00607288)
1.55          (0.945974 0.00188755 0.00793909) (1.00998 0.0155467 0.0202842) (1.04869 -0.0541738 -0.00714134)
1.56          (0.94595 -0.000381686 0.0101436) (1.01094 0.015932 0.0176625) (1.04697 -0.0555311 -0.00833969)
1.57          (0.943161 0.000314686 0.0121824) (1.01197 0.0149744 0.0139011) (1.05006 -0.0537714 -0.00876539)
1.58          (0.943747 0.00199607 0.0141178) (1.01201 0.0139083 0.0109372) (1.04923 -0.0553201 -0.00910512)
1.59          (0.943983 0.00775608 0.0151533) (1.00707 0.0167394 0.00790808) (1.05352 -0.054159 -0.0102479)
1.6           (0.943322 0.00667713 0.0172646) (1.00767 0.0176806 0.00545906) (1.05424 -0.0525543 -0.010667)
1.61          (0.94368 0.00560763 0.019035) (1.00998 0.0167746 0.00307567) (1.05256 -0.0519685 -0.0117505)
1.62          (0.943805 0.000926161 0.0202182) (1.01289 0.0180669 0.000849272) (1.04875 -0.0523099 -0.0120983)
1.63          (0.943237 0.000623334 0.0216187) (1.01305 0.0194001 -0.00135986) (1.05008 -0.0512204 -0.0128473)
1.64          (0.94383 -0.00450885 0.0229262) (1.01808 0.0185016 -0.00331808) (1.04572 -0.0514224 -0.0134017)
1.65          (0.946365 0.00101035 0.0241186) (1.01299 0.0213771 -0.00555185) (1.04833 -0.0498048 -0.0143932)
1.66          (0.945392 0.00031671 0.0252914) (1.01462 0.0228667 -0.00716898) (1.04783 -0.0494794 -0.0159804)
1.67          (0.943505 0.00288008 0.0259752) (1.01251 0.0265223 -0.00870109) (1.0522 -0.0474167 -0.0166167)
1.68          (0.942423 0.00625382 0.0269094) (1.01021 0.0294351 -0.00975576) (1.05694 -0.0429194 -0.0163396)
1.69          (0.944063 0.00141096 0.0272927) (1.01563 0.0298592 -0.0114872) (1.04928 -0.0454995 -0.0181968)
1.7           (0.946784 -0.00351553 0.0279644) (1.02161 0.0293525 -0.0137663) (1.04171 -0.0481341 -0.0195023)
1.71          (0.945589 -0.00565878 0.0282636) (1.02452 0.0307304 -0.0142834) (1.04169 -0.0448005 -0.0207198)
1.72          (0.944173 -0.00726741 0.0280656) (1.0272 0.0322918 -0.0148273) (1.04217 -0.042206 -0.021666)
1.73          (0.946105 -0.00932409 0.0283353) (1.02834 0.0339241 -0.0153544) (1.04015 -0.0408183 -0.0224802)
1.74          (0.947376 -0.00803812 0.0284387) (1.0305 0.0352233 -0.0158715) (1.03713 -0.0422376 -0.0226578)
1.75          (0.944105 -0.00409356 0.0282556) (1.03027 0.0375644 -0.0164548) (1.04145 -0.039577 -0.023455)
1.76          (0.940364 -0.00733708 0.0282294) (1.03621 0.0384692 -0.0167221) (1.04136 -0.0366345 -0.0249348)
1.77          (0.943787 -0.00477583 0.0280965) (1.03013 0.0457982 -0.0173189) (1.04352 -0.0344377 -0.0256995)
1.78          (0.943642 -0.00258085 0.0274868) (1.03051 0.0490156 -0.0168687) (1.04296 -0.0342707 -0.0267225)
1.79          (0.940254 -0.000685671 0.0265144) (1.03316 0.0489995 -0.0161425) (1.04652 -0.0305882 -0.0277976)
1.8           (0.939982 -0.00293735 0.0258133) (1.03721 0.0497681 -0.0160013) (1.0438 -0.0308343 -0.0287609)
1.81          (0.940016 -0.00313512 0.0253711) (1.03773 0.0533659 -0.014885) (1.04477 -0.0280667 -0.0295321)
1.82          (0.937255 -0.00308504 0.0245381) (1.04288 0.052495 -0.0143501) (1.04444 -0.0262421 -0.0312541)
1.83          (0.937091 -0.00375491 0.0235582) (1.04379 0.0558725 -0.012746) (1.04381 -0.0258622 -0.031023)
1.84          (0.935499 -0.00529195 0.0224167) (1.04627 0.0583159 -0.0117038) (1.04379 -0.0243715 -0.0319703)
1.85          (0.934557 -0.00165836 0.0218524) (1.04503 0.0617231 -0.00965866) (1.0469 -0.022154 -0.0330958)
1.86          (0.933528 -0.000400488 0.0206265) (1.04773 0.0611938 -0.00884632) (1.04618 -0.0221088 -0.0337413)
1.87          (0.932746 -0.00588839 0.0193134) (1.05419 0.0613299 -0.00701919) (1.04059 -0.024002 -0.0343411)
1.88          (0.933011 -0.00965477 0.0185967) (1.05611 0.0648586 -0.00598253) (1.03648 -0.026469 -0.0340443)
1.89          (0.930029 -0.00869193 0.0176106) (1.0586 0.0646915 -0.00442739) (1.03844 -0.0251486 -0.0339363)
1.9           (0.927889 -0.0120988 0.0167603) (1.0656 0.063317 -0.00298049) (1.03325 -0.0287805 -0.0335125)
1.91          (0.924349 -0.0106212 0.0158016) (1.06778 0.0627113 -0.0015838) (1.03675 -0.0269689 -0.0334045)
1.92          (0.923185 -0.00517228 0.0146836) (1.06088 0.0682459 0.000163931) (1.04325 -0.0251219 -0.0327806)
1.93          (0.921795 -0.00211425 0.0139067) (1.05806 0.0706322 0.00123595) (1.04681 -0.0243517 -0.032042)
1.94          (0.919723 -0.00508692 0.0126027) (1.06338 0.0690643 0.00362845) (1.04349 -0.0269195 -0.0319951)
1.95          (0.916967 -0.00452702 0.0115175) (1.06276 0.0707647 0.00571045) (1.0467 -0.0260955 -0.0304538)
1.96          (0.918383 -0.00273443 0.0104086) (1.06129 0.0717456 0.00761181) (1.04559 -0.0290351 -0.0303746)
1.97          (0.914135 -0.00120053 0.00940329) (1.06314 0.0692652 0.00967583) (1.05083 -0.0271544 -0.0291861)
1.98          (0.911628 -0.00681274 0.00835451) (1.06689 0.0688592 0.0120383) (1.04878 -0.0292319 -0.0281703)
1.99          (0.912625 -0.00373443 0.0070566) (1.06119 0.0708979 0.0118481) (1.05014 -0.0315884 -0.0267115)
2             (0.912161 -0.00254739 0.00660086) (1.05855 0.0732326 0.0136863) (1.05271 -0.0322947 -0.0259478)
2.01          (0.909392 -0.00219438 0.00595403) (1.05879 0.0714169 0.0147603) (1.05602 -0.0322953 -0.0244732)
2.02          (0.907932 -0.00560156 0.00480127) (1.06009 0.0689609 0.0172264) (1.05414 -0.0350284 -0.0223638)
2.03          (0.908276 -0.000764325 0.00376764) (1.05234 0.071623 0.0183119) (1.05861 -0.0365066 -0.0194814)
2.04          (0.906456 -0.00372238 0.00307954) (1.05705 0.0665123 0.0196382) (1.05665 -0.0398259 -0.0177645)
2.05          (0.90464 -0.0030413 0.00245037) (1.05757 0.0637374 0.0202924) (1.05799 -0.0410676 -0.0151651)
2.06          (0.902979 -0.00606684 0.00164108) (1.05964 0.0605826 0.0210978) (1.05682 -0.0435018 -0.0135652)
2.07          (0.905146 -0.004205 0.000472326) (1.05087 0.0639381 0.0223729) (1.05948 -0.0459806 -0.0107302)
2.08          (0.905595 -0.00240122 -0.000116806) (1.04842 0.0621158 0.0225919) (1.06222 -0.0478835 -0.00757893)
2.09          (0.903215 -0.00345625 -0.000773344) (1.04918 0.0589445 0.0233555) (1.06288 -0.0500383 -0.00452678)
2.1           (0.900946 -0.00929951 -0.00158936) (1.05272 0.0544467 0.0235662) (1.06225 -0.050103 -0.00141657)
2.11          (0.902829 -0.00608777 -0.00201063) (1.04409 0.0565346 0.024888) (1.06621 -0.0517777 0.000723381)
2.12          (0.901948 -0.00383829 -0.00253144) (1.04282 0.0525733 0.0250686) (1.06751 -0.0545352 0.00342307)
2.13          (0.902258 -0.00471779 -0.00260126) (1.03987 0.051933 0.024916) (1.06831 -0.0563788 0.00575742)
2.14          (0.903774 -0.00926056 -0.00303314) (1.04191 0.0479811 0.0249432) (1.06357 -0.0607926 0.00781192)
2.15          (0.903304 -0.00823471 -0.00311544) (1.03995 0.0452441 0.0247592) (1.06616 -0.0614972 0.011385)
2.16          (0.905467 -0.00795607 -0.00362474) (1.03694 0.0434153 0.0254665) (1.06551 -0.0641324 0.013602)
2.17          (0.906413 -0.011149 -0.00383887) (1.03663 0.0413564 0.024595) (1.06399 -0.0657642 0.0162716)
2.18          (0.908786 -0.00619646 -0.00404324) (1.02952 0.0417796 0.0242344) (1.06846 -0.0645333 0.0189188)
2.19          (0.908519 -0.00391558 -0.00462909) (1.02602 0.0398465 0.023847) (1.07186 -0.0647818 0.0221634)
2.2           (0.908313 -0.00815174 -0.00467146) (1.02869 0.0357179 0.0237582) (1.06867 -0.0671913 0.0232159)
2.21          (0.910894 -0.0108112 -0.00452531) (1.02675 0.0353967 0.0234495) (1.0669 -0.0675043 0.0253825)
2.22          (0.913062 -0.00885319 -0.00376689) (1.02559 0.0319859 0.0224429) (1.06572 -0.0692855 0.027806)
2.23          (0.913253 -0.00926036 -0.00377449) (1.02571 0.0291356 0.021351) (1.06638 -0.0680409 0.0295481)
2.24          (0.914262 -0.0111078 -0.00386116) (1.02585 0.0272372 0.0207277) (1.06467 -0.0683603 0.0313832)
2.25          (0.916305 -0.00961859 -0.00369778) (1.02423 0.0251426 0.0191385) (1.06396 -0.0691156 0.0330494)
2.26          (0.918466 -0.0102063 -0.00312311) (1.02268 0.0230691 0.018684) (1.0627 -0.0697172 0.0350905)
2.27          (0.921815 -0.00715999 -0.00245567) (1.01804 0.0243842 0.0180196) (1.06201 -0.0710266 0.0361377)
2.28          (0.921458 -0.00697178 -0.00177037) (1.0168 0.0241186 0.0164942) (1.06336 -0.0687372 0.0363648)
2.29          (0.922734 -0.00635422 -0.00163837) (1.01663 0.0224522 0.0150669) (1.06183 -0.0685481 0.0372714)
2.3           (0.926947 -0.00302358 -0.000698438) (1.01216 0.0227766 0.0140603) (1.06209 -0.0673428 0.0380325)
2.31          (0.927883 -0.00341685 0.000245299) (1.01258 0.0216895 0.0133988) (1.06038 -0.0670353 0.0381329)
2.32          (0.926352 -0.00697158 0.000394696) (1.01715 0.0182085 0.0119485) (1.05921 -0.0642328 0.037725)
2.33          (0.927131 0.000892925 0.000223193) (1.00939 0.0208056 0.0107158) (1.06483 -0.0600776 0.0364884)
2.34          (0.92956 -0.0013899 0.00100236) (1.01166 0.019867 0.00968537) (1.06002 -0.0612698 0.0374684)
2.35          (0.931544 -0.00347174 0.00196542) (1.01237 0.0198274 0.00792277) (1.05513 -0.0616717 0.0365701)
2.36          (0.932575 0.00263436 0.00320709) (1.00607 0.0232155 0.00729811) (1.06007 -0.0581495 0.0368913)
2.37          (0.933851 0.00586919 0.00373362) (1.0019 0.0253859 0.00556184) (1.06171 -0.0558003 0.0373683)
2.38          (0.93473 0.00556437 0.00503105) (1.00445 0.0238211 0.00453032) (1.0586 -0.0546892 0.0366319)
2.39          (0.935115 0.00316897 0.00615979) (1.00769 0.0227882 0.00379607) (1.05544 -0.0532192 0.0361635)
2.4           (0.935759 0.00464359 0.00663497) (1.0068 0.0228001 0.00192317) (1.05402 -0.0526783 0.0350411)
2.41          (0.936324 0.00485231 0.00654704) (1.009 0.021396 0.000309096) (1.05125 -0.0526973 0.0343486)
2.42          (0.936742 0.00787092 0.00762563) (1.00813 0.0210436 -8.00876e-06) (1.05249 -0.0499234 0.033138)
2.43          (0.93769 0.00728559 0.00835868) (1.00649 0.024513 -0.000903189) (1.051 -0.0490447 0.0317905)
2.44          (0.938454 0.00842808 0.00932829) (1.00247 0.0290331 -0.00165227) (1.05206 -0.0457511 0.0309655)
2.45          (0.938318 0.00294213 0.0102153) (1.00968 0.0247016 -0.00289251) (1.04504 -0.0483251 0.0299896)
2.46          (0.938489 0.00301562 0.0105662) (1.00994 0.0257873 -0.00325618) (1.04371 -0.0464779 0.0284143)
2.47          (0.937681 0.00417515 0.0108996) (1.00834 0.0267979 -0.0044102) (1.04609 -0.042904 0.0274296)
2.48          (0.935239 0.00295049 0.0116459) (1.01129 0.0245186 -0.00483175) (1.04778 -0.0382894 0.0264431)
2.49          (0.934208 0.00219373 0.0121135) (1.01301 0.0237486 -0.00544619) (1.04618 -0.038778 0.0265315)
2.5           (0.93641 0.00118589 0.0125346) (1.01288 0.025436 -0.00634948) (1.03932 -0.0433156 0.0251415)
2.51          (0.938098 0.000928088 0.0122996) (1.0111 0.0271164 -0.00579484) (1.03795 -0.0428867 0.0229259)
2.52          (0.936416 0.00227077 0.0130611) (1.01114 0.0260607 -0.00610569) (1.0397 -0.04129 0.0220628)
2.53          (0.938897 0.00924401 0.0137843) (1.00119 0.0324904 -0.00652797) (1.0441 -0.0402772 0.0212756)
2.54          (0.934467 0.00898161 0.0134778) (1.00468 0.0297529 -0.00685188) (1.04559 -0.0385404 0.0197352)
2.55          (0.934269 0.00585678 0.0139084) (1.00723 0.0288072 -0.00693501) (1.04335 -0.0386037 0.0184911)
2.56          (0.931916 0.00448526 0.0138127) (1.00666 0.0295793 -0.00656805) (1.04515 -0.0370964 0.0172057)
2.57          (0.932509 0.000883773 0.0137421) (1.00805 0.0298405 -0.00696138) (1.04028 -0.0404047 0.0165138)
2.58          (0.934527 -0.00162342 0.0135937) (1.00874 0.0290638 -0.00643884) (1.03669 -0.0424301 0.0165902)
2.59          (0.932401 0.00746021 0.0132319) (1.00039 0.0310196 -0.0070379) (1.04783 -0.0369864 0.0158101)
2.6           (0.932208 0.00631457 0.012805) (0.999292 0.0319314 -0.00614767) (1.0469 -0.0390856 0.0150218)
2.61          (0.929649 0.000468154 0.012891) (1.00537 0.0298475 -0.00476679) (1.04338 -0.0403226 0.0140283)
2.62          (0.928219 -0.0068041 0.0129679) (1.01073 0.0276295 -0.00389363) (1.04013 -0.0412439 0.0132105)
2.63          (0.926545 -0.00268565 0.0125521) (1.00881 0.0254199 -0.00328778) (1.04468 -0.0407077 0.0123313)
2.64          (0.925125 0.00220288 0.0118207) (1.00556 0.0251908 -0.0028721) (1.04879 -0.0413075 0.0118511)
2.65          (0.924984 0.00310241 0.0115787) (1.00415 0.0240699 -0.00189843) (1.05084 -0.041427 0.010859)
2.66          (0.926328 -0.00230922 0.0114353) (1.00719 0.021968 -0.000972639) (1.04673 -0.0441346 0.0106084)
2.67          (0.925899 -0.00221788 0.0108666) (1.00559 0.0218469 0.000421338) (1.05029 -0.0428591 0.0109202)
2.68          (0.925221 0.00508016 0.010353) (0.998228 0.0242652 0.00162646) (1.05862 -0.0407083 0.010622)
2.69          (0.924252 0.00718654 0.0102265) (0.997205 0.0231269 0.00226479) (1.06106 -0.041625 0.0101791)