/*--------------------------------*- C++ -*----------------------------------*\
| =========                 |                                                 |
| \\      /  F ield         | OpenFOAM: The Open Source CFD Toolbox           |
|  \\    /   O peration     | Version:  2312                                  |
|   \\  /    A nd           | Website:  www.openfoam.com                      |
|    \\/     M anipulation  |                                                 |
\*---------------------------------------------------------------------------*/
FoamFile
{
    version     2.0;
    format      ascii;
    arch        "LSB;label=32;scalar=64";
    class       volScalarField;
    location    "0.6";
    object      p;
}
// * * * * * * * * * * * * * * * * * * * * * * * * * * * * * * * * * * * * * //

dimensions      [0 2 -2 0 0 0 0];

internalField   nonuniform List<scalar> 
1600
(
2.77446e-06
-0.00118755
-0.00392001
-0.0075962
-0.0115433
-0.0152655
-0.0184049
-0.020709
-0.0220102
-0.0222087
-0.0212591
-0.0191593
-0.0159429
-0.0116727
-0.00643617
-0.000340965
0.00648788
0.0139109
0.0217767
0.0299242
0.0381853
0.0463873
0.0543556
0.0619173
0.0689047
0.0751592
0.080536
0.0849092
0.0881769
0.0902676
0.0911463
0.0908217
0.089354
0.0868643
0.083546
0.0796783
0.0756417
0.0719452
0.0692574
0.0681403
0.0011942
2.24131e-06
-0.00221585
-0.00506884
-0.00811319
-0.0109834
-0.0133949
-0.0151344
-0.0160518
-0.0160511
-0.0150823
-0.0131339
-0.0102267
-0.0064089
-0.00175158
0.00365449
0.00970211
0.0162702
0.0232265
0.0304293
0.0377308
0.0449788
0.0520202
0.0587037
0.0648833
0.0704221
0.0751967
0.0791013
0.0820529
0.0839963
0.0849097
0.0848099
0.0837587
0.0818691
0.0793119
0.0763212
0.0731991
0.0703219
0.0681371
0.0670253
0.00394018
0.00221129
-3.71431e-05
-0.00259805
-0.00522823
-0.00765771
-0.00966282
-0.0110719
-0.0117592
-0.0116411
-0.0106714
-0.00883716
-0.00615355
-0.00266037
0.00158148
0.00649299
0.0119797
0.017934
0.0242376
0.0307637
0.0373793
0.0439477
0.0503309
0.0563932
0.0620038
0.0670407
0.0713943
0.0749718
0.0777012
0.079536
0.0804596
0.0804896
0.0796825
0.0781371
0.0759976
0.073455
0.0707495
0.0681631
0.0659543
0.0643351
0.00770584
0.00509272
0.0024499
-0.000180592
-0.00273699
-0.00501938
-0.00685344
-0.00810745
-0.00868301
-0.00851332
-0.0075617
-0.0058188
-0.00329944
-3.98115e-05
0.00390508
0.00846385
0.0135509
0.0190685
0.0249087
0.0309557
0.0370874
0.0431784
0.0491018
0.0547326
0.0599504
0.0646425
0.0687081
0.0720615
0.0746361
0.0763882
0.0773009
0.0773875
0.0766945
0.0753035
0.0733315
0.0709305
0.068293
0.065634
0.0630409
0.0605699
0.0118964
0.0082542
0.00504355
0.00216143
-0.000497486
-0.00278932
-0.00458145
-0.00577926
-0.00631161
-0.00613015
-0.00520992
-0.00354796
-0.00116137
0.00191461
0.00562841
0.00991395
0.0146923
0.0198734
0.0253577
0.0310381
0.0368014
0.0425309
0.0481085
0.0534171
0.0583436
0.0627822
0.0666371
0.0698266
0.0722859
0.0739711
0.0748619
0.0749642
0.0743125
0.0729704
0.0710288
0.0686046
0.0658512
0.0629321
0.0597764
0.0563033
0.0160853
0.0113713
0.00750016
0.0042486
0.00136489
-0.00105002
-0.00289715
-0.00411458
-0.00465653
-0.00449298
-0.00361158
-0.00201734
0.000268531
0.00320976
0.00675618
0.010845
0.015402
0.0203429
0.0255744
0.0309961
0.0365017
0.0419809
0.0473219
0.0524133
0.0571467
0.0614199
0.0651398
0.0682255
0.0706116
0.0722508
0.0731171
0.0732075
0.0725435
0.0711709
0.0691569
0.0665885
0.0635894
0.0602849
0.0564667
0.0519413
0.0199632
0.0141825
0.00960448
0.00590755
0.00271435
9.44159e-05
-0.00187927
-0.00317252
-0.0037623
-0.00363579
-0.00279338
-0.00124879
0.000971429
0.00382847
0.00727195
0.0112406
0.0156632
0.0204593
0.0255401
0.0308099
0.0361672
0.0415063
0.0467192
0.0516978
0.0563362
0.0605334
0.064196
0.0672417
0.0696016
0.0712232
0.0720727
0.0721369
0.0714241
0.0699635
0.0678015
0.0650006
0.0616631
0.0578888
0.0533527
0.0477709
0.0232968
0.0164739
0.0111713
0.00698551
0.00343028
0.000552607
-0.00159417
-0.0029991
-0.00365903
-0.00357692
-0.00276538
-0.00124712
0.000945249
0.00376938
0.00717339
0.0110962
0.015468
0.0202107
0.0252384
0.0304584
0.0357721
0.0410767
0.046266
0.0512332
0.0558726
0.0600821
0.0637662
0.0668385
0.0692247
0.0708652
0.0717169
0.0717557
0.0709764
0.0693931
0.0670341
0.0639426
0.0602061
0.0559088
0.0506263
0.0440007
0.025904
0.0180662
0.0120361
0.0073391
0.00339219
0.000226366
-0.0021198
-0.00365481
-0.00439285
-0.00435117
-0.00355391
-0.00203269
0.000173437
0.00301786
0.00644631
0.0103968
0.0147997
0.019578
0.0246472
0.0299164
0.0352884
0.0406613
0.0459294
0.0509853
0.0557215
0.060033
0.0638201
0.0669906
0.0694628
0.071168
0.072053
0.0720816
0.0712357
0.0695148
0.066932
0.0635147
0.0593417
0.0544886
0.0484436
0.040786
0.0276343
0.0188038
0.0120491
0.00683129
0.00247857
-0.000989506
-0.00354554
-0.00521457
-0.0060261
-0.00601038
-0.00520238
-0.00364245
-0.00137628
0.00154477
0.00506333
0.00911567
0.0136315
0.0185336
0.0237381
0.0291542
0.0346852
0.0402287
0.0456781
0.0509235
0.0558545
0.0603614
0.0643381
0.067685
0.0703112
0.0721377
0.0730995
0.0731477
0.0722507
0.0703947
0.0675791
0.0638185
0.059187
0.0537571
0.0469371
0.03825
0.0283548
0.0185451
0.0110698
0.00532896
0.000566976
-0.00320521
-0.00596893
-0.00776374
-0.00863295
-0.00861886
-0.00776682
-0.0061257
-0.00374797
-0.000690089
0.00298695
0.00721704
0.0119284
0.017043
0.0224764
0.0281375
0.0339286
0.0397458
0.0454803
0.051019
0.0562464
0.0610468
0.0653065
0.0689163
0.0717747
0.0737905
0.0748857
0.0749975
0.0740806
0.0721076
0.0690653
0.0649576
0.0598567
0.0538355
0.0462262
0.0364986
0.0279401
0.017155
0.00896126
0.00269955
-0.00246769
-0.00653638
-0.00949515
-0.0113969
-0.0122978
-0.0122517
-0.0113141
-0.00954238
-0.00699588
-0.00373648
0.000170825
0.00465704
0.00964837
0.0150655
0.0208227
0.0268276
0.0329811
0.0391772
0.0453035
0.0512427
0.0568734
0.0620722
0.0667161
0.0706851
0.0738651
0.076151
0.0774501
0.0776845
0.0767938
0.0747369
0.0714877
0.0670407
0.0614676
0.0548441
0.0464269
0.0356327
0.0262648
0.0144985
0.00558575
-0.00119238
-0.00675534
-0.0111053
-0.0142374
-0.0162175
-0.0171146
-0.0169939
-0.0159209
-0.0139618
-0.0111832
-0.0076525
-0.00343912
0.00138476
0.00674299
0.0125544
0.018732
0.0251816
0.0318021
0.0384848
0.0451134
0.0515653
0.0577122
0.063422
0.068561
0.0729966
0.0766002
0.0792512
0.08084
0.0812714
0.0804689
0.0783758
0.074953
0.0701848
0.0641435
0.0569088
0.0476593
0.0357574
0.0231984
0.010436
0.000800231
-0.00648841
-0.0124331
-0.0170421
-0.0203175
-0.0223383
-0.0231864
-0.022939
-0.0216723
-0.0194614
-0.0163805
-0.0125031
-0.0079032
-0.00265641
0.00315862
0.00945884
0.0161555
0.0231529
0.0303478
0.0376282
0.0448739
0.0519564
0.0587397
0.065082
0.0708375
0.0758595
0.0800031
0.0831296
0.0851103
0.0858307
0.085195
0.0831294
0.0795797
0.0745191
0.0680201
0.0601667
0.0500547
0.0369893
0.0186006
0.00481861
-0.00554741
-0.0133395
-0.0196475
-0.0244868
-0.0278668
-0.0298807
-0.0306248
-0.0301888
-0.0286605
-0.0261248
-0.0226641
-0.0183582
-0.0132861
-0.00752695
-0.00116184
0.00572437
0.0130415
0.0206924
0.0285717
0.0365648
0.0445471
0.0523842
0.0599319
0.0670378
0.0735431
0.0792851
0.0841008
0.0878307
0.0903243
0.0914444
0.0910731
0.0891161
0.0855015
0.0801888
0.0732499
0.0647721
0.053762
0.039463
0.0123182
-0.00251531
-0.0136221
-0.0219091
-0.0285573
-0.0335905
-0.0370269
-0.0389758
-0.0395493
-0.0388516
-0.0369833
-0.0340402
-0.0301136
-0.0252904
-0.0196546
-0.0132889
-0.00627673
0.00129566
0.00933715
0.0177497
0.0264265
0.0352507
0.0440938
0.0528156
0.0612638
0.069275
0.076676
0.0832868
0.0889239
0.0934046
0.0965529
0.0982052
0.0982172
0.0964702
0.0928701
0.0873595
0.0800072
0.0709024
0.0589536
0.0433376
0.0041816
-0.0117441
-0.0236052
-0.0323765
-0.0393361
-0.0445177
-0.047951
-0.049764
-0.0500871
-0.0490414
-0.0467421
-0.0432978
-0.0388096
-0.033372
-0.0270743
-0.0200028
-0.0122427
-0.003881
0.00499109
0.0142756
0.0238654
0.0336421
0.0434746
0.0532174
0.0627103
0.0717787
0.0802347
0.0878793
0.0945063
0.0999068
0.103875
0.106217
0.106756
0.105344
0.101859
0.0962215
0.0884936
0.0787641
0.0658322
0.0488023
-0.00599862
-0.0230669
-0.035699
-0.0449411
-0.0521753
-0.0574485
-0.060805
-0.0623951
-0.0623716
-0.0608756
-0.0580397
-0.0539869
-0.0488298
-0.0426712
-0.0356061
-0.0277238
-0.0191109
-0.00985404
-4.32667e-05
0.0102249
0.0208446
0.0316977
0.0426514
0.0535566
0.0642459
0.0745341
0.0842178
0.0930784
0.100885
0.107398
0.112379
0.115596
0.116836
0.115912
0.112668
0.106995
0.0989441
0.0885994
0.0746377
0.0560838
-0.0184358
-0.0367087
-0.0501316
-0.0598261
-0.0672878
-0.0725807
-0.0757681
-0.0770284
-0.0765415
-0.074473
-0.0709763
-0.0661916
-0.0602446
-0.0532474
-0.0453008
-0.0364968
-0.0269222
-0.016662
-0.00580338
0.00556062
0.0173274
0.0293813
0.0415902
0.0538029
0.0658468
0.0775268
0.0886246
0.0989009
0.108097
0.115943
0.122159
0.126471
0.128619
0.128371
0.125525
0.119936
0.111635
0.100695
0.0856555
0.0654533
-0.0333721
-0.0529262
-0.0671633
-0.077285
-0.0849125
-0.0901327
-0.0930346
-0.0938318
-0.0927385
-0.08995
-0.0856456
-0.0799858
-0.0731115
-0.0651452
-0.0561934
-0.0463502
-0.0357011
-0.0243278
-0.0123123
0.000258481
0.013288
0.026666
0.0402637
0.053931
0.0674922
0.0807441
0.0934551
0.105365
0.116186
0.125612
0.13332
0.138984
0.14229
0.142947
0.140697
0.135344
0.12689
0.115391
0.099226
0.0772364
-0.0510857
-0.072017
-0.0870951
-0.0976085
-0.10532
-0.110347
-0.112815
-0.112981
-0.111104
-0.107416
-0.102129
-0.0954267
-0.0874681
-0.078387
-0.0682955
-0.0572885
-0.0454489
-0.0328522
-0.0195723
-0.00568694
0.00871706
0.0235383
0.0386557
0.0539234
0.0691664
0.0841766
0.0987105
0.112488
0.125193
0.136479
0.145974
0.153293
0.158054
0.159897
0.15849
0.153569
0.145095
0.133092
0.115757
0.0918237
-0.0719005
-0.0943302
-0.11028
-0.121134
-0.128819
-0.133494
-0.135335
-0.134657
-0.131775
-0.126969
-0.120488
-0.112546
-0.103323
-0.092964
-0.0815863
-0.0692843
-0.0561353
-0.0422057
-0.0275577
-0.0122557
0.00362744
0.020004
0.0367651
0.0537743
0.0708618
0.0878191
0.104394
0.12029
0.135161
0.14862
0.160239
0.169567
0.176141
0.179512
0.179256
0.175022
0.166706
0.154285
0.135741
0.109686
-0.0961996
-0.120284
-0.13714
-0.148261
-0.155765
-0.159878
-0.160838
-0.159043
-0.154878
-0.148683
-0.140754
-0.131341
-0.120645
-0.108826
-0.0960028
-0.0822679
-0.0676892
-0.0523202
-0.0362069
-0.0193953
-0.00193908
0.0160934
0.0346111
0.0534933
0.0725815
0.0916726
0.110512
0.128789
0.146131
0.16211
0.176239
0.187988
0.196802
0.202121
0.203407
0.200187
0.192268
0.179555
0.159774
0.131394
-0.124446
-0.150386
-0.168186
-0.179462
-0.186574
-0.189837
-0.189584
-0.186319
-0.180519
-0.1726
-0.162917
-0.151759
-0.139352
-0.125868
-0.111428
-0.0961168
-0.0799892
-0.0630803
-0.0454144
-0.0270135
-0.00790564
0.0118666
0.0322373
0.0531087
0.0743413
0.0957454
0.117071
0.138
0.158141
0.177022
0.194096
0.208748
0.220312
0.228097
0.231412
0.229633
0.222436
0.209615
0.188582
0.157643
-0.157212
-0.185272
-0.204049
-0.215313
-0.221733
-0.223753
-0.221846
-0.216653
-0.208772
-0.198717
-0.186909
-0.173683
-0.159293
-0.143919
-0.127679
-0.110645
-0.092854
-0.0743148
-0.0550239
-0.0349721
-0.0141548
0.00741862
0.0297157
0.0526701
0.0761713
0.100052
0.124079
0.147935
0.171216
0.193415
0.213925
0.232038
0.246962
0.257848
0.263816
0.264035
0.257999
0.245339
0.223066
0.189287
-0.195222
-0.22575
-0.245525
-0.256522
-0.261818
-0.262056
-0.2579
-0.250183
-0.23966
-0.226959
-0.212582
-0.196916
-0.180235
-0.162724
-0.144494
-0.125595
-0.106034
-0.0857901
-0.0648221
-0.0430823
-0.0205253
0.00288153
0.0271479
0.0522492
0.0781147
0.104613
0.131537
0.15859
0.185363
0.211328
0.235822
0.258041
0.277054
0.291825
0.301237
0.30419
0.299919
0.287809
0.264351
0.227394
-0.239423
-0.272874
-0.293634
-0.303966
-0.307513
-0.305217
-0.298018
-0.287004
-0.273128
-0.257159
-0.239689
-0.221152
-0.201841
-0.181935
-0.161522
-0.140623
-0.119206
-0.0972058
-0.0745373
-0.0511041
-0.0268117
-0.0015764
0.0246636
0.0519367
0.0802244
0.109445
0.139438
0.169938
0.200558
0.230761
0.259841
0.286907
0.310879
0.330503
0.344373
0.351037
0.349369
0.338382
0.313866
0.273319
-0.291081
-0.328054
-0.349712
-0.358749
-0.359629
-0.353748
-0.342437
-0.327122
-0.309007
-0.28902
-0.267846
-0.245959
-0.223654
-0.201089
-0.178314
-0.155302
-0.131969
-0.108196
-0.0838411
-0.05875
-0.0327697
-0.00575635
0.0224143
0.0518351
0.0825539
0.114556
0.147746
0.181915
0.216722
0.251648
0.285971
0.318726
0.348688
0.374362
0.393995
0.40568
0.407789
0.398783
0.373466
0.328814
-0.351956
-0.393225
-0.415528
-0.422261
-0.419116
-0.408173
-0.391315
-0.370412
-0.346963
-0.322071
-0.296502
-0.270747
-0.245079
-0.219606
-0.194317
-0.169117
-0.143854
-0.118338
-0.0923586
-0.0656956
-0.0381276
-0.00944123
0.0205599
0.0520451
0.085143
0.119925
0.156381
0.194393
0.233693
0.273826
0.314088
0.353477
0.390643
0.423844
0.450922
0.469399
0.476959
0.471235
0.445601
0.396214
-0.424569
-0.471105
-0.493466
-0.49626
-0.487058
-0.468977
-0.444661
-0.416533
-0.386428
-0.35561
-0.324894
-0.294744
-0.265365
-0.23678
-0.20888
-0.181478
-0.154331
-0.127164
-0.0996855
-0.0715986
-0.0426054
-0.0124152
0.0192497
0.0526455
0.0879964
0.125478
0.165194
0.207147
0.251191
0.29698
0.343894
0.390955
0.436736
0.479273
0.515969
0.543646
0.559064
0.55864
0.533601
0.478726
-0.512687
-0.565608
-0.586763
-0.582933
-0.564628
-0.536502
-0.502204
-0.464815
-0.426501
-0.388635
-0.352002
-0.316968
-0.283601
-0.251782
-0.221266
-0.191736
-0.162837
-0.134191
-0.105415
-0.0761261
-0.0459427
-0.014491
0.0185944
0.0536659
0.0910553
0.131061
0.173929
0.219818
0.268758
0.320582
0.374836
0.430664
0.486665
0.540726
0.589828
0.629989
0.656769
0.664823
0.642104
0.580951
-0.62218
-0.682505
-0.699822
-0.684932
-0.652957
-0.610744
-0.563199
-0.514089
-0.465828
-0.419762
-0.37651
-0.336215
-0.298719
-0.263685
-0.230677
-0.199217
-0.168808
-0.138956
-0.109176
-0.07899
-0.0479328
-0.0155436
0.018634
0.0550538
0.0941647
0.136405
0.182185
0.231865
0.285706
0.343806
0.405991
0.471673
0.539645
0.607815
0.672858
0.729965
0.773236
0.794854
0.777742
0.709802
-0.762665
-0.830474
-0.838579
-0.805289
-0.752833
-0.691019
-0.626124
-0.562469
-0.502459
-0.447148
-0.396767
-0.351062
-0.309519
-0.271494
-0.236305
-0.203269
-0.17173
-0.141062
-0.110671
-0.0799887
-0.048462
-0.0155467
0.019303
0.0566421
0.0970409
0.141087
0.189379
0.242513
0.301047
0.365438
0.435938
0.512425
0.59415
0.679356
0.764714
0.844767
0.912029
0.955407
0.950232
0.876267
-0.950829
-1.02278
-1.01077
-0.946979
-0.86407
-0.775354
-0.688225
-0.607043
-0.533669
-0.468415
-0.410785
-0.359896
-0.314719
-0.274213
-0.237385
-0.203321
-0.171188
-0.140225
-0.109731
-0.0790479
-0.0475466
-0.0146063
0.0203997
0.0581209
0.0992447
0.14451
0.194715
0.250721
0.313438
0.383784
0.462601
0.550492
0.647541
0.75284
0.863672
0.974522
1.07662
1.155
1.17411
1.09897
-1.21718
-1.27972
-1.22552
-1.11155
-0.984083
-0.859383
-0.744765
-0.643438
-0.555748
-0.480575
-0.416241
-0.360957
-0.313022
-0.270905
-0.233265
-0.198941
-0.166923
-0.136322
-0.106343
-0.0762532
-0.0453607
-0.0129849
0.0215659
0.0590195
0.100166
0.145883
0.197165
0.255148
0.321131
0.396579
0.483085
0.582271
0.695542
0.823592
0.965403
1.11675
1.26887
1.40351
1.47117
1.41125
-1.61772
-1.63096
-1.49154
-1.29673
-1.10591
-0.93502
-0.788327
-0.66556
-0.563995
-0.480149
-0.410647
-0.352519
-0.303266
-0.260827
-0.223509
-0.189918
-0.15889
-0.129435
-0.100688
-0.0718684
-0.0422438
-0.0110983
0.0223
0.0587313
0.0990597
0.144274
0.195537
0.254238
0.322062
0.401057
0.493694
0.602884
0.731897
0.884012
1.06159
1.26426
1.48654
1.71011
1.87243
1.87277
-2.25447
-2.11588
-1.8136
-1.49444
-1.21744
-0.990531
-0.809433
-0.666469
-0.553639
-0.464025
-0.392076
-0.333476
-0.284904
-0.243802
-0.208182
-0.176474
-0.147414
-0.119955
-0.0932012
-0.0663578
-0.0386855
-0.00946307
0.0220492
0.0566483
0.0952321
0.138852
0.188783
0.246605
0.314329
0.39454
0.490604
0.606894
0.749026
0.92398
1.13981
1.40424
1.72097
2.07942
2.41787
2.58913
-3.35593
-2.78319
-2.17271
-1.67586
-1.2926
-1.00575
-0.794168
-0.637292
-0.519346
-0.429188
-0.358985
-0.303191
-0.257843
-0.22006
-0.187699
-0.159128
-0.133067
-0.108478
-0.0844863
-0.0603257
-0.0352877
-0.00868243
0.0201994
0.0521279
0.0879814
0.128807
0.175899
0.230916
0.296039
0.374212
0.469495
0.587588
0.736569
0.927932
1.17801
1.50838
1.94102
2.49111
3.15799
3.79447
-5.52068
-3.66083
-2.43096
-1.71419
-1.24181
-0.921836
-0.704889
-0.553991
-0.445513
-0.365227
-0.304203
-0.256583
-0.218411
-0.186925
-0.160128
-0.136531
-0.114979
-0.0945447
-0.0744546
-0.0540302
-0.0326466
-0.00969619
0.0154473
0.0434653
0.0751389
0.111406
0.153438
0.202758
0.26141
0.332236
0.419317
0.528716
0.66972
0.857112
1.11545
1.48394
2.01601
2.80543
4.12345
6.09143
-9.20664
-4.51958
-2.30624
-1.42121
-0.958965
-0.682932
-0.512278
-0.400607
-0.322939
-0.266438
-0.223911
-0.190929
-0.164583
-0.142863
-0.124314
-0.107837
-0.0925733
-0.0778246
-0.0630007
-0.0475806
-0.0310814
-0.0130321
0.0070521
0.029697
0.055501
0.0851772
0.11961
0.159936
0.207678
0.264944
0.334797
0.4219
0.533802
0.683788
0.89749
1.22415
1.75395
2.73329
5.06145
9.86896
)
;

boundaryField
{
    movingWall
    {
        type            zeroGradient;
    }
    fixedWalls
    {
        type            zeroGradient;
    }
    frontAndBack
    {
        type            empty;
    }
}


// ************************************************************************* //
