/*--------------------------------*- C++ -*----------------------------------*\
| =========                 |                                                 |
| \\      /  F ield         | OpenFOAM: The Open Source CFD Toolbox           |
|  \\    /   O peration     | Version:  2312                                  |
|   \\  /    A nd           | Website:  www.openfoam.com                      |
|    \\/     M anipulation  |                                                 |
\*---------------------------------------------------------------------------*/
FoamFile
{
    version     2.0;
    format      ascii;
    arch        "LSB;label=32;scalar=64";
    class       surfaceScalarField;
    location    "0.6";
    object      phi;
}
// * * * * * * * * * * * * * * * * * * * * * * * * * * * * * * * * * * * * * //

dimensions      [0 3 -1 0 0 0 0];

oriented        oriented;

internalField   nonuniform List<scalar> 
3120
(
2.54066e-09
-2.54664e-09
4.10053e-09
-1.55978e-09
2.25379e-09
1.84675e-09
-3.55923e-09
5.81308e-09
-1.31493e-08
9.5901e-09
-2.60073e-08
1.2858e-08
-4.14933e-08
1.5486e-08
-5.89306e-08
1.74372e-08
-7.76508e-08
1.87203e-08
-9.70171e-08
1.93664e-08
-1.16435e-07
1.94178e-08
-1.35358e-07
1.8923e-08
-1.53291e-07
1.79332e-08
-1.69792e-07
1.6501e-08
-1.84472e-07
1.46798e-08
-1.96995e-07
1.25234e-08
-2.07081e-07
1.0086e-08
-2.14504e-07
7.42269e-09
-2.19094e-07
4.58964e-09
-2.20738e-07
1.64478e-09
-2.19386e-07
-1.35203e-09
-2.15048e-07
-4.33867e-09
-2.07797e-07
-7.25068e-09
-1.97775e-07
-1.00214e-08
-1.85193e-07
-1.25825e-08
-1.70329e-07
-1.48642e-08
-1.53532e-07
-1.67971e-08
-1.35219e-07
-1.83126e-08
-1.15874e-07
-1.93451e-08
-9.60404e-08
-1.98335e-08
-7.63169e-08
-1.97235e-08
-5.73466e-08
-1.89703e-08
-3.98047e-08
-1.7542e-08
-2.43793e-08
-1.54254e-08
-1.17432e-08
-1.2636e-08
-2.5032e-09
-9.23991e-09
2.89647e-09
-5.39962e-09
4.36084e-09
-1.46443e-09
2.56352e-09
1.79716e-09
2.5634e-09
1.61746e-09
-4.16402e-09
-1.17509e-09
1.2327e-09
-1.17296e-08
1.24012e-08
-3.11049e-08
2.51885e-08
-5.90991e-08
3.75842e-08
-9.47674e-08
4.85264e-08
-1.3676e-07
5.74783e-08
-1.83536e-07
6.42129e-08
-2.33494e-07
6.86788e-08
-2.85053e-07
7.09257e-08
-3.36698e-07
7.1063e-08
-3.87012e-07
6.92364e-08
-4.34692e-07
6.56129e-08
-4.78564e-07
6.03729e-08
-5.17589e-07
5.37051e-08
-5.50869e-07
4.58038e-08
-5.77651e-07
3.68683e-08
-5.97331e-07
2.71027e-08
-6.09458e-07
1.67166e-08
-6.13739e-07
5.92585e-09
-6.10044e-07
-5.04666e-09
-5.98413e-07
-1.59705e-08
-5.79055e-07
-2.66079e-08
-5.52362e-07
-3.67147e-08
-5.18903e-07
-4.60418e-08
-4.79428e-07
-5.43386e-08
-4.34869e-07
-6.13566e-08
-3.86327e-07
-6.68544e-08
-3.35068e-07
-7.06044e-08
-2.82501e-07
-7.24003e-08
-2.30158e-07
-7.20666e-08
-1.79658e-07
-6.94703e-08
-1.32663e-07
-6.4537e-08
-9.08142e-08
-5.72742e-08
-5.56404e-08
-4.78097e-08
-2.84202e-08
-3.64601e-08
-9.96555e-09
-2.3854e-08
-2.96359e-10
-1.11333e-08
1.85494e-09
-3.53612e-10
4.41827e-09
-1.67021e-09
-2.49375e-09
-1.213e-08
1.16926e-08
-3.41231e-08
3.43943e-08
-6.85114e-08
5.95768e-08
-1.1488e-07
8.39533e-08
-1.71943e-07
1.05589e-07
-2.37865e-07
1.234e-07
-3.10508e-07
1.36856e-07
-3.87602e-07
1.45772e-07
-4.6686e-07
1.50184e-07
-5.46062e-07
1.50265e-07
-6.23105e-07
1.4628e-07
-6.96042e-07
1.3855e-07
-7.63105e-07
1.27436e-07
-8.22722e-07
1.13322e-07
-8.73532e-07
9.66139e-08
-9.14392e-07
7.77281e-08
-9.44386e-07
5.70963e-08
-9.62831e-07
3.51624e-08
-9.6929e-07
1.23847e-08
-9.63573e-07
-1.07643e-08
-9.45746e-07
-3.37973e-08
-9.16141e-07
-5.62128e-08
-8.75358e-07
-7.74981e-08
-8.24266e-07
-9.71331e-08
-7.64008e-07
-1.14597e-07
-6.95988e-07
-1.29377e-07
-6.21862e-07
-1.4098e-07
-5.43522e-07
-1.48945e-07
-4.6306e-07
-1.52862e-07
-3.82731e-07
-1.52396e-07
-3.04896e-07
-1.47305e-07
-2.3195e-07
-1.37484e-07
-1.66218e-07
-1.23006e-07
-1.09827e-07
-1.04201e-07
-6.45224e-08
-8.17649e-08
-3.14228e-08
-5.69539e-08
-1.07073e-08
-3.18489e-08
-1.24184e-09
-9.81876e-09
3.17641e-09
-5.57469e-09
3.08096e-09
-2.50016e-08
3.11196e-08
-5.97384e-08
6.9131e-08
-1.0996e-07
1.09798e-07
-1.74774e-07
1.48768e-07
-2.52473e-07
1.83288e-07
-3.40783e-07
2.1171e-07
-4.37085e-07
2.33157e-07
-5.38586e-07
2.47274e-07
-6.42458e-07
2.54056e-07
-7.45928e-07
2.53735e-07
-8.46355e-07
2.46706e-07
-9.41276e-07
2.33471e-07
-1.02845e-06
2.14608e-07
-1.10587e-06
1.90744e-07
-1.1718e-06
1.62547e-07
-1.22479e-06
1.30712e-07
-1.26365e-06
9.59614e-08
-1.28753e-06
5.90394e-08
-1.29586e-06
2.07156e-08
-1.28841e-06
-1.82167e-08
-1.26526e-06
-5.69405e-08
-1.22686e-06
-9.46175e-08
-1.17396e-06
-1.30393e-07
-1.10769e-06
-1.63403e-07
-1.02951e-06
-1.92786e-07
-9.41187e-07
-2.17697e-07
-8.44838e-07
-2.37329e-07
-7.42846e-07
-2.50936e-07
-6.37845e-07
-2.57863e-07
-5.32658e-07
-2.57583e-07
-4.30226e-07
-2.49737e-07
-3.33513e-07
-2.34197e-07
-2.45384e-07
-2.11135e-07
-1.68456e-07
-1.81129e-07
-1.04908e-07
-1.45313e-07
-5.62606e-08
-1.05602e-07
-2.31288e-08
-6.49807e-08
-4.99333e-09
-2.79541e-08
-1.81693e-09
-9.47748e-09
1.25585e-08
-3.82075e-08
5.98497e-08
-8.61475e-08
1.17071e-07
-1.5251e-07
1.76161e-07
-2.35724e-07
2.31982e-07
-3.33549e-07
2.81114e-07
-4.43246e-07
3.21407e-07
-5.61747e-07
3.51658e-07
-6.85812e-07
3.71339e-07
-8.12163e-07
3.80406e-07
-9.37581e-07
3.79154e-07
-1.05899e-06
3.68117e-07
-1.17352e-06
3.48002e-07
-1.27855e-06
3.19632e-07
-1.37172e-06
2.83916e-07
-1.451e-06
2.41826e-07
-1.51467e-06
1.94382e-07
-1.56135e-06
1.42647e-07
-1.59003e-06
8.77189e-08
-1.60005e-06
3.07348e-08
-1.59113e-06
-2.71351e-08
-1.56339e-06
-8.46861e-08
-1.51732e-06
-1.40685e-07
-1.45384e-06
-1.93875e-07
-1.37425e-06
-2.42991e-07
-1.28026e-06
-2.86773e-07
-1.17397e-06
-3.23992e-07
-1.05782e-06
-3.53477e-07
-9.34604e-07
-3.74151e-07
-8.07388e-07
-3.85079e-07
-6.79455e-07
-3.85516e-07
-5.54219e-07
-3.74972e-07
-4.35124e-07
-3.53292e-07
-3.25509e-07
-3.20751e-07
-2.28455e-07
-2.78183e-07
-1.46615e-07
-2.27152e-07
-8.20285e-08
-1.70188e-07
-3.59547e-08
-1.11054e-07
-8.76628e-09
-5.51424e-08
-1.05832e-08
-1.31739e-08
2.57324e-08
-5.10683e-08
9.77441e-08
-1.12178e-07
1.78181e-07
-1.94643e-07
2.58625e-07
-2.96086e-07
3.33424e-07
-4.13639e-07
3.98667e-07
-5.44042e-07
4.5181e-07
-6.83769e-07
4.91385e-07
-8.29159e-07
5.16729e-07
-9.76533e-07
5.2778e-07
-1.12229e-06
5.24914e-07
-1.263e-06
5.08829e-07
-1.39546e-06
4.80456e-07
-1.51672e-06
4.40893e-07
-1.62417e-06
3.91362e-07
-1.71551e-06
3.33173e-07
-1.78884e-06
2.67711e-07
-1.84261e-06
1.96416e-07
-1.87568e-06
1.20785e-07
-1.8873e-06
4.23617e-08
-1.87718e-06
-3.72603e-08
-1.84542e-06
-1.16444e-07
-1.79259e-06
-1.93515e-07
-1.71969e-06
-2.6677e-07
-1.62819e-06
-3.34494e-07
-1.51998e-06
-3.94985e-07
-1.39739e-06
-4.4658e-07
-1.26316e-06
-4.87704e-07
-1.12041e-06
-5.1691e-07
-9.7254e-07
-5.32945e-07
-8.2324e-07
-5.34816e-07
-6.76337e-07
-5.21875e-07
-5.35708e-07
-4.9392e-07
-4.05152e-07
-4.51307e-07
-2.88236e-07
-3.95098e-07
-1.88152e-07
-3.27237e-07
-1.07562e-07
-2.50777e-07
-4.85011e-08
-1.70115e-07
-1.23494e-08
-9.12941e-08
-2.29327e-08
-1.66236e-08
4.2356e-08
-6.33572e-08
1.44478e-07
-1.37367e-07
2.52191e-07
-2.35707e-07
3.56965e-07
-3.55131e-07
4.52848e-07
-4.92073e-07
5.35609e-07
-6.42699e-07
6.02436e-07
-8.02998e-07
6.51683e-07
-9.68884e-07
6.82616e-07
-1.1363e-06
6.95197e-07
-1.30131e-06
6.89921e-07
-1.46016e-06
6.67679e-07
-1.60936e-06
6.29659e-07
-1.74573e-06
5.7726e-07
-1.86641e-06
5.12046e-07
-1.96893e-06
4.35698e-07
-2.05122e-06
3.49992e-07
-2.11158e-06
2.56781e-07
-2.14879e-06
1.57989e-07
-2.16203e-06
5.56025e-08
-2.15095e-06
-4.83323e-08
-2.11569e-06
-1.51712e-07
-2.05682e-06
-2.52384e-07
-1.97543e-06
-3.48163e-07
-1.87307e-06
-4.36848e-07
-1.7518e-06
-5.16253e-07
-1.61414e-06
-5.84247e-07
-1.46304e-06
-6.38806e-07
-1.30187e-06
-6.78072e-07
-1.13438e-06
-7.00436e-07
-9.64582e-07
-7.04616e-07
-7.96689e-07
-6.89769e-07
-6.35007e-07
-6.55601e-07
-4.83808e-07
-6.02507e-07
-3.47188e-07
-5.31717e-07
-2.28941e-07
-4.45484e-07
-1.32437e-07
-3.47281e-07
-6.05556e-08
-2.41996e-07
-1.57041e-08
-1.36146e-07
-3.86368e-08
-1.98557e-08
6.22117e-08
-7.50782e-08
1.997e-07
-1.6165e-07
3.38763e-07
-2.75573e-07
4.70887e-07
-4.12709e-07
5.89985e-07
-5.6875e-07
6.9165e-07
-7.39246e-07
7.72931e-07
-9.19667e-07
8.32105e-07
-1.10549e-06
8.68442e-07
-1.29229e-06
8.81996e-07
-1.4758e-06
8.73429e-07
-1.65199e-06
8.4387e-07
-1.81713e-06
7.94796e-07
-1.96782e-06
7.27945e-07
-2.10102e-06
6.45249e-07
-2.21411e-06
5.48788e-07
-2.30487e-06
4.40755e-07
-2.37153e-06
3.23441e-07
-2.41276e-06
1.99217e-07
-2.42769e-06
7.0535e-08
-2.41594e-06
-6.00804e-08
-2.37762e-06
-1.90036e-07
-2.31333e-06
-3.16679e-07
-2.22418e-06
-4.37312e-07
-2.11181e-06
-5.49217e-07
-1.97837e-06
-6.49693e-07
-1.82652e-06
-7.36101e-07
-1.65939e-06
-8.05929e-07
-1.4806e-06
-8.56867e-07
-1.29413e-06
-8.86898e-07
-1.10435e-06
-8.94403e-07
-9.15829e-07
-8.78287e-07
-7.33321e-07
-8.38109e-07
-5.61595e-07
-7.74233e-07
-4.05324e-07
-6.87988e-07
-2.68965e-07
-5.81843e-07
-1.56654e-07
-4.59592e-07
-7.21523e-08
-3.26497e-07
-1.88668e-08
-1.89431e-07
-5.75036e-08
-2.29225e-08
8.51343e-08
-8.63368e-08
2.63114e-07
-1.85161e-07
4.37587e-07
-3.1439e-07
6.00117e-07
-4.68997e-07
7.44591e-07
-6.43902e-07
8.66556e-07
-8.34006e-07
9.63035e-07
-1.03424e-06
1.03234e-06
-1.23962e-06
1.07382e-06
-1.44535e-06
1.08772e-06
-1.64684e-06
1.07492e-06
-1.83981e-06
1.03684e-06
-2.02031e-06
9.75295e-07
-2.18476e-06
8.92393e-07
-2.32998e-06
7.90469e-07
-2.45321e-06
6.72025e-07
-2.55215e-06
5.39696e-07
-2.62494e-06
3.96224e-07
-2.67017e-06
2.44447e-07
-2.68693e-06
8.72958e-08
-2.67479e-06
-7.22149e-08
-2.63384e-06
-2.30987e-07
-2.56467e-06
-3.85849e-07
-2.46841e-06
-5.33573e-07
-2.34673e-06
-6.70902e-07
-2.20183e-06
-7.94588e-07
-2.03648e-06
-9.01449e-07
-1.85397e-06
-9.88444e-07
-1.65808e-06
-1.05276e-06
-1.45306e-06
-1.09191e-06
-1.24357e-06
-1.10389e-06
-1.03458e-06
-1.08728e-06
-8.31292e-07
-1.0414e-06
-6.39007e-07
-9.66519e-07
-4.63025e-07
-8.6397e-07
-3.08519e-07
-7.36349e-07
-1.80437e-07
-5.87674e-07
-8.34398e-08
-4.23494e-07
-2.19022e-08
-2.50968e-07
-7.94058e-08
-2.588e-08
1.11014e-07
-9.72747e-08
3.34509e-07
-2.08119e-07
5.48431e-07
-3.52446e-07
7.44443e-07
-5.24337e-07
9.16482e-07
-7.17931e-07
1.06015e-06
-9.27454e-07
1.17256e-06
-1.14727e-06
1.25215e-06
-1.37193e-06
1.29848e-06
-1.59624e-06
1.31204e-06
-1.81532e-06
1.29401e-06
-2.02465e-06
1.24617e-06
-2.22007e-06
1.17071e-06
-2.39785e-06
1.07018e-06
-2.55471e-06
9.47325e-07
-2.68779e-06
8.05104e-07
-2.7947e-06
6.46608e-07
-2.87352e-06
4.75044e-07
-2.9228e-06
2.93726e-07
-2.94157e-06
1.06067e-07
-2.92936e-06
-8.442e-08
-2.88622e-06
-2.74128e-07
-2.81271e-06
-4.5936e-07
-2.70994e-06
-6.36344e-07
-2.57958e-06
-8.01264e-07
-2.42387e-06
-9.503e-07
-2.24562e-06
-1.07969e-06
-2.04824e-06
-1.18583e-06
-1.83566e-06
-1.26533e-06
-1.61238e-06
-1.3152e-06
-1.38334e-06
-1.33293e-06
-1.1539e-06
-1.31671e-06
-9.29743e-07
-1.26556e-06
-7.16741e-07
-1.17952e-06
-5.20865e-07
-1.05985e-06
-3.48055e-07
-9.09159e-07
-2.04111e-07
-7.31619e-07
-9.46119e-08
-5.32993e-07
-2.48812e-08
-3.20699e-07
-1.04287e-07
-2.87803e-08
1.39795e-07
-1.08039e-07
4.13768e-07
-2.30774e-07
6.71166e-07
-3.90074e-07
9.03744e-07
-5.79138e-07
1.10555e-06
-7.91304e-07
1.27232e-06
-1.02011e-06
1.40136e-06
-1.25932e-06
1.49136e-06
-1.50302e-06
1.54218e-06
-1.74562e-06
1.55464e-06
-1.98196e-06
1.53034e-06
-2.20725e-06
1.47146e-06
-2.4172e-06
1.38066e-06
-2.60794e-06
1.26092e-06
-2.7761e-06
1.11548e-06
-2.91876e-06
9.4776e-07
-3.03347e-06
7.61323e-07
-3.11828e-06
5.59851e-07
-3.17169e-06
3.47134e-07
-3.19269e-06
1.27066e-07
-3.18076e-06
-9.63492e-08
-3.13589e-06
-3.18997e-07
-3.05859e-06
-5.36653e-07
-2.94994e-06
-7.45e-07
-2.81155e-06
-9.39648e-07
-2.64567e-06
-1.11619e-06
-2.45512e-06
-1.27024e-06
-2.24337e-06
-1.39758e-06
-2.0145e-06
-1.4942e-06
-1.7732e-06
-1.5565e-06
-1.5247e-06
-1.58143e-06
-1.27477e-06
-1.56665e-06
-1.02956e-06
-1.51076e-06
-7.95582e-07
-1.4135e-06
-5.79507e-07
-1.27592e-06
-3.88094e-07
-1.10057e-06
-2.28041e-07
-8.91672e-07
-1.05875e-07
-6.55158e-07
-2.78733e-08
-3.98701e-07
-1.3216e-07
-3.16697e-08
1.71464e-07
-1.18767e-07
5.00865e-07
-2.53366e-07
8.05765e-07
-4.27614e-07
1.07799e-06
-6.33812e-07
1.31174e-06
-8.64487e-07
1.50299e-06
-1.11246e-06
1.64933e-06
-1.3709e-06
1.7498e-06
-1.63339e-06
1.80468e-06
-1.89398e-06
1.81523e-06
-2.14719e-06
1.78355e-06
-2.38804e-06
1.71232e-06
-2.61209e-06
1.60471e-06
-2.81538e-06
1.46421e-06
-2.99447e-06
1.29457e-06
-3.14641e-06
1.09971e-06
-3.26875e-06
8.8366e-07
-3.35949e-06
6.50592e-07
-3.41711e-06
4.04759e-07
-3.44057e-06
1.50527e-07
-3.4293e-06
-1.07623e-07
-3.38322e-06
-3.65082e-07
-3.30276e-06
-6.17111e-07
-3.18891e-06
-8.58847e-07
-3.04323e-06
-1.08533e-06
-2.8679e-06
-1.29152e-06
-2.66572e-06
-1.47242e-06
-2.44019e-06
-1.62311e-06
-2.19547e-06
-1.73892e-06
-1.93643e-06
-1.81554e-06
-1.66859e-06
-1.84927e-06
-1.3981e-06
-1.83714e-06
-1.13163e-06
-1.77723e-06
-8.76324e-07
-1.66881e-06
-6.39629e-07
-1.51262e-06
-4.2917e-07
-1.31103e-06
-2.52597e-07
-1.06825e-06
-1.17433e-07
-7.90322e-07
-3.09439e-08
-4.8519e-07
-1.63104e-07
-3.45885e-08
2.06053e-07
-1.29587e-07
5.95864e-07
-2.76123e-07
9.52301e-07
-4.65381e-07
1.26725e-06
-6.88746e-07
1.53511e-06
-9.37901e-07
1.75215e-06
-1.20493e-06
1.91636e-06
-1.4824e-06
2.02727e-06
-1.76339e-06
2.08567e-06
-2.04157e-06
2.09341e-06
-2.31118e-06
2.05316e-06
-2.56708e-06
1.96821e-06
-2.80468e-06
1.84231e-06
-3.01999e-06
1.67952e-06
-3.20954e-06
1.48413e-06
-3.3704e-06
1.26056e-06
-3.50011e-06
1.01336e-06
-3.59667e-06
7.4716e-07
-3.65858e-06
4.66663e-07
-3.68474e-06
1.76688e-07
-3.67453e-06
-1.1783e-07
-3.6278e-06
-4.11812e-07
-3.54489e-06
-7.00027e-07
-3.42665e-06
-9.77079e-07
-3.27455e-06
-1.23743e-06
-3.09064e-06
-1.47543e-06
-2.87766e-06
-1.6854e-06
-2.63907e-06
-1.8617e-06
-2.3791e-06
-1.99889e-06
-2.10274e-06
-2.09191e-06
-1.81576e-06
-2.13625e-06
-1.52469e-06
-2.12821e-06
-1.23674e-06
-2.06518e-06
-9.5972e-07
-1.94583e-06
-7.01888e-07
-1.77045e-06
-4.71803e-07
-1.54112e-06
-2.78136e-07
-1.26191e-06
-1.29479e-07
-9.38979e-07
-3.41535e-08
-5.80515e-07
-1.97258e-07
-3.75722e-08
2.43625e-07
-1.40611e-07
6.98902e-07
-2.99248e-07
1.11094e-06
-5.03664e-07
1.47167e-06
-7.4428e-07
1.77572e-06
-1.01191e-06
2.01977e-06
-1.29787e-06
2.20232e-06
-1.59409e-06
2.32349e-06
-1.89317e-06
2.38475e-06
-2.18841e-06
2.38864e-06
-2.47379e-06
2.33854e-06
-2.74402e-06
2.23844e-06
-2.99445e-06
2.09274e-06
-3.22107e-06
1.90614e-06
-3.42045e-06
1.6835e-06
-3.58969e-06
1.4298e-06
-3.72637e-06
1.15005e-06
-3.82857e-06
8.49357e-07
-3.89476e-06
5.32853e-07
-3.92385e-06
2.05773e-07
-3.91515e-06
-1.26529e-07
-3.86841e-06
-4.58545e-07
-3.78386e-06
-7.84579e-07
-3.66221e-06
-1.09873e-06
-3.50473e-06
-1.39491e-06
-3.31333e-06
-1.66683e-06
-3.09062e-06
-1.90812e-06
-2.83995e-06
-2.11236e-06
-2.56554e-06
-2.2733e-06
-2.27246e-06
-2.38499e-06
-1.9667e-06
-2.442e-06
-1.65516e-06
-2.43975e-06
-1.34558e-06
-2.37476e-06
-1.04644e-06
-2.24496e-06
-7.66894e-07
-2.05e-06
-5.16485e-07
-1.79152e-06
-3.05e-07
-1.4734e-06
-1.42197e-07
-1.10178e-06
-3.75585e-08
-6.85154e-07
-2.34816e-07
-4.0653e-08
2.84278e-07
-1.51942e-07
8.10191e-07
-3.22931e-07
1.28193e-06
-5.42721e-07
1.69146e-06
-8.00711e-07
2.03371e-06
-1.08679e-06
2.30585e-06
-1.39148e-06
2.50702e-06
-1.70608e-06
2.63809e-06
-2.02268e-06
2.70135e-06
-2.33422e-06
2.70019e-06
-2.6345e-06
2.63882e-06
-2.9181e-06
2.52204e-06
-3.18036e-06
2.355e-06
-3.41732e-06
2.1431e-06
-3.62563e-06
1.89181e-06
-3.80249e-06
1.60666e-06
-3.94559e-06
1.29316e-06
-4.05307e-06
9.56839e-07
-4.12346e-06
6.03238e-07
-4.15565e-06
2.37964e-07
-4.14892e-06
-1.33264e-07
-4.10291e-06
-5.04556e-07
-4.01768e-06
-8.69806e-07
-3.89376e-06
-1.22265e-06
-3.73221e-06
-1.55646e-06
-3.5347e-06
-1.86434e-06
-3.30362e-06
-2.1392e-06
-3.04216e-06
-2.37382e-06
-2.75444e-06
-2.56102e-06
-2.44556e-06
-2.69387e-06
-2.12165e-06
-2.76591e-06
-1.78993e-06
-2.77147e-06
-1.45867e-06
-2.70603e-06
-1.13707e-06
-2.56655e-06
-8.35192e-07
-2.35188e-06
-5.6367e-07
-2.06305e-06
-3.33508e-07
-1.70356e-06
-1.55762e-07
-1.27953e-06
-4.12128e-08
-7.99703e-07
-2.76029e-07
-4.38616e-08
3.2814e-07
-1.63681e-07
9.30011e-07
-3.47348e-07
1.46559e-06
-5.8279e-07
1.9269e-06
-8.58296e-07
2.30922e-06
-1.16277e-06
2.61032e-06
-1.48589e-06
2.83015e-06
-1.8183e-06
2.9705e-06
-2.15161e-06
3.03465e-06
-2.47844e-06
3.02702e-06
-2.79241e-06
2.95279e-06
-3.08807e-06
2.8177e-06
-3.36081e-06
2.62775e-06
-3.60678e-06
2.38907e-06
-3.8228e-06
2.10783e-06
-4.00623e-06
1.79009e-06
-4.15493e-06
1.44186e-06
-4.26716e-06
1.06906e-06
-4.34151e-06
6.77597e-07
-4.37693e-06
2.73379e-07
-4.37263e-06
-1.37567e-07
-4.32814e-06
-5.49042e-07
-4.24335e-06
-9.54592e-07
-4.11856e-06
-1.34745e-06
-3.95452e-06
-1.7205e-06
-3.75262e-06
-2.06624e-06
-3.51494e-06
-2.37688e-06
-3.2444e-06
-2.64435e-06
-2.94493e-06
-2.86049e-06
-2.62154e-06
-3.01726e-06
-2.28044e-06
-3.107e-06
-1.92913e-06
-3.12278e-06
-1.57636e-06
-3.0588e-06
-1.23206e-06
-2.91085e-06
-9.07258e-07
-2.67669e-06
-6.13775e-07
-2.35653e-06
-3.63965e-07
-1.95337e-06
-1.70341e-07
-1.47315e-06
-4.51686e-08
-9.24875e-07
-3.21197e-07
-4.72297e-08
3.75369e-07
-1.7593e-07
1.05871e-06
-3.7268e-07
1.66234e-06
-6.24101e-07
2.17832e-06
-9.17264e-07
2.60238e-06
-1.24e-06
2.93305e-06
-1.5811e-06
3.17126e-06
-1.93053e-06
3.31993e-06
-2.27943e-06
3.38355e-06
-2.62015e-06
3.36774e-06
-2.9462e-06
3.27884e-06
-3.25216e-06
3.12366e-06
-3.53358e-06
2.90916e-06
-3.7868e-06
2.6423e-06
-4.00889e-06
2.32992e-06
-4.19747e-06
1.97867e-06
-4.35063e-06
1.59501e-06
-4.4668e-06
1.18523e-06
-4.54472e-06
7.55522e-07
-4.58338e-06
3.12035e-07
-4.58196e-06
-1.38987e-07
-4.53988e-06
-5.91119e-07
-4.45682e-06
-1.03765e-06
-4.33279e-06
-1.47148e-06
-4.16821e-06
-1.88508e-06
-3.96405e-06
-2.2704e-06
-3.722e-06
-2.61893e-06
-3.44461e-06
-2.92175e-06
-3.13546e-06
-3.16964e-06
-2.79937e-06
-3.35335e-06
-2.44252e-06
-3.46384e-06
-2.0726e-06
-3.49271e-06
-1.69877e-06
-3.43263e-06
-1.33173e-06
-3.27789e-06
-9.83493e-07
-3.02492e-06
-6.67183e-07
-2.67284e-06
-3.96663e-07
-2.22389e-06
-1.86101e-07
-1.68371e-06
-4.94788e-08
-1.0615e-06
-3.70676e-07
-5.07931e-08
4.26162e-07
-1.88803e-07
1.19672e-06
-3.99121e-07
1.87266e-06
-6.66896e-07
2.44609e-06
-9.77834e-07
2.91332e-06
-1.31858e-06
3.2738e-06
-1.67701e-06
3.52968e-06
-2.04236e-06
3.68527e-06
-2.40533e-06
3.74652e-06
-2.75807e-06
3.72047e-06
-3.09406e-06
3.61484e-06
-3.40803e-06
3.43763e-06
-3.69577e-06
3.19689e-06
-3.95394e-06
2.90047e-06
-4.17996e-06
2.55594e-06
-4.37181e-06
2.17051e-06
-4.52788e-06
1.75108e-06
-4.64688e-06
1.30424e-06
-4.72774e-06
8.36377e-07
-4.76951e-06
3.5381e-07
-4.77139e-06
-1.37108e-07
-4.73267e-06
-6.29839e-07
-4.6528e-06
-1.11752e-06
-4.53146e-06
-1.59283e-06
-4.36865e-06
-2.04789e-06
-4.16487e-06
-2.47419e-06
-3.92125e-06
-2.86255e-06
-3.63982e-06
-3.20317e-06
-3.32371e-06
-3.48575e-06
-2.97737e-06
-3.69969e-06
-2.60682e-06
-3.8344e-06
-2.21977e-06
-3.87976e-06
-1.82578e-06
-3.82662e-06
-1.43624e-06
-3.66743e-06
-1.06422e-06
-3.39694e-06
-7.24247e-07
-3.01281e-06
-4.31888e-07
-2.51625e-06
-2.03214e-07
-1.91239e-06
-5.4199e-08
-1.21051e-06
-4.24875e-07
-5.45957e-08
4.80758e-07
-2.02436e-07
1.34456e-06
-4.26902e-07
2.09713e-06
-7.11449e-07
2.73064e-06
-1.04024e-06
3.24211e-06
-1.39861e-06
3.63217e-06
-1.7734e-06
3.90448e-06
-2.15316e-06
4.06504e-06
-2.5282e-06
4.12155e-06
-2.8905e-06
4.08278e-06
-3.23366e-06
3.958e-06
-3.55267e-06
3.75664e-06
-3.8437e-06
3.48791e-06
-4.10387e-06
3.16064e-06
-4.33108e-06
2.78315e-06
-4.52377e-06
2.3632e-06
-4.68076e-06
1.90807e-06
-4.8011e-06
1.42458e-06
-4.88396e-06
9.19239e-07
-4.92855e-06
3.98403e-07
-4.93408e-06
-1.31583e-07
-4.89972e-06
-6.64196e-07
-4.82468e-06
-1.19255e-06
-4.70826e-06
-1.70924e-06
-4.54998e-06
-2.20617e-06
-4.34971e-06
-2.67445e-06
-4.10796e-06
-3.1043e-06
-3.82606e-06
-3.48507e-06
-3.50649e-06
-3.80533e-06
-3.15314e-06
-4.05304e-06
-2.77166e-06
-4.21588e-06
-2.36967e-06
-4.28175e-06
-1.95696e-06
-4.23932e-06
-1.54557e-06
-4.07883e-06
-1.14966e-06
-3.79285e-06
-7.85293e-07
-3.37718e-06
-4.69935e-07
-2.8316e-06
-2.2186e-07
-2.16046e-06
-5.939e-08
-1.37298e-06
-4.84265e-07
-5.86937e-08
5.39452e-07
-2.17004e-07
1.50287e-06
-4.56313e-07
2.33644e-06
-7.58099e-07
3.03243e-06
-1.10474e-06
3.58875e-06
-1.48012e-06
4.00754e-06
-1.86997e-06
4.29433e-06
-2.26213e-06
4.4572e-06
-2.64657e-06
4.50599e-06
-3.01527e-06
4.45148e-06
-3.36205e-06
4.30479e-06
-3.68233e-06
4.07692e-06
-3.97283e-06
3.77841e-06
-4.2313e-06
3.41911e-06
-4.45626e-06
3.0081e-06
-4.64674e-06
2.55368e-06
-4.8021e-06
2.06343e-06
-4.92183e-06
1.54431e-06
-5.00543e-06
1.00284e-06
-5.05232e-06
4.45286e-07
-5.06173e-06
-1.22168e-07
-5.03276e-06
-6.93162e-07
-4.96436e-06
-1.26096e-06
-4.85541e-06
-1.8182e-06
-4.70484e-06
-2.35674e-06
-4.51186e-06
-2.86743e-06
-4.27614e-06
-3.34002e-06
-3.99816e-06
-3.76306e-06
-3.67952e-06
-4.12397e-06
-3.32334e-06
-4.40921e-06
-2.93466e-06
-4.60456e-06
-2.52077e-06
-4.69564e-06
-2.09153e-06
-4.66856e-06
-1.65951e-06
-4.51085e-06
-1.23997e-06
-4.21238e-06
-8.50632e-07
-3.76652e-06
-5.11113e-07
-3.17112e-06
-2.42243e-07
-2.42933e-06
-6.5122e-08
-1.5501e-06
-5.49387e-07
-6.31629e-08
6.02614e-07
-2.3274e-07
1.67245e-06
-4.87733e-07
2.59143e-06
-8.07279e-07
3.35197e-06
-1.17169e-06
3.95316e-06
-1.56316e-06
4.39902e-06
-1.96628e-06
4.69744e-06
-2.36818e-06
4.8591e-06
-2.75859e-06
4.8964e-06
-3.12962e-06
4.82251e-06
-3.47555e-06
4.65071e-06
-3.79239e-06
4.39377e-06
-4.07763e-06
4.06366e-06
-4.32983e-06
3.67131e-06
-4.54828e-06
3.22656e-06
-4.73279e-06
2.73819e-06
-4.88336e-06
2.214e-06
-5.00004e-06
1.66098e-06
-5.08272e-06
1.08553e-06
-5.13109e-06
4.93655e-07
-5.1445e-06
-1.08764e-07
-5.12195e-06
-7.15713e-07
-5.06213e-06
-1.32077e-06
-4.96347e-06
-1.91685e-06
-4.8243e-06
-2.49592e-06
-4.64298e-06
-3.04875e-06
-4.41826e-06
-3.56474e-06
-4.14953e-06
-4.03179e-06
-3.83728e-06
-4.43622e-06
-3.48359e-06
-4.76291e-06
-3.09256e-06
-4.99559e-06
-2.67089e-06
-5.11731e-06
-2.22824e-06
-5.11121e-06
-1.77757e-06
-4.96152e-06
-1.33519e-06
-4.65476e-06
-9.20566e-07
-4.18115e-06
-5.55766e-07
-3.53592e-06
-2.646e-07
-2.7205e-06
-7.1479e-08
-1.74322e-06
-6.20866e-07
-6.81066e-08
6.70721e-07
-2.49955e-07
1.8543e-06
-5.21666e-07
2.86314e-06
-8.59555e-07
3.68986e-06
-1.24149e-06
4.33509e-06
-1.64778e-06
4.80531e-06
-2.06175e-06
5.11141e-06
-2.4699e-06
5.26725e-06
-2.86186e-06
5.28836e-06
-3.23012e-06
5.19077e-06
-3.56958e-06
4.99018e-06
-3.87719e-06
4.70137e-06
-4.15139e-06
4.33786e-06
-4.39176e-06
3.91168e-06
-4.5986e-06
3.4334e-06
-4.77259e-06
2.91219e-06
-4.91454e-06
2.35595e-06
-5.02515e-06
1.77159e-06
-5.10482e-06
1.1652e-06
-5.15356e-06
5.42392e-07
-5.17086e-06
-9.1458e-08
-5.1557e-06
-7.30871e-07
-5.10652e-06
-1.36996e-06
-5.02128e-06
-2.00209e-06
-4.89762e-06
-2.61958e-06
-4.73301e-06
-3.21335e-06
-4.52509e-06
-3.77267e-06
-4.27197e-06
-4.2849e-06
-3.97279e-06
-4.7354e-06
-3.6282e-06
-5.10749e-06
-3.24107e-06
-5.38272e-06
-2.81707e-06
-5.54131e-06
-2.36535e-06
-5.56293e-06
-1.89899e-06
-5.42788e-06
-1.43523e-06
-5.11852e-06
-9.95397e-07
-4.62098e-06
-6.04291e-07
-3.92703e-06
-2.89218e-07
-3.03557e-06
-7.85662e-08
-1.95388e-06
-6.99432e-07
-7.36681e-08
7.44389e-07
-2.69078e-07
2.04971e-06
-5.5879e-07
3.15285e-06
-9.15672e-07
4.04674e-06
-1.31468e-06
4.7341e-06
-1.73398e-06
5.22461e-06
-2.15557e-06
5.533e-06
-2.56543e-06
5.67712e-06
-2.95333e-06
5.67626e-06
-3.31239e-06
5.54982e-06
-3.63851e-06
5.3163e-06
-3.92981e-06
4.99267e-06
-4.18601e-06
4.59406e-06
-4.40794e-06
4.13361e-06
-4.59709e-06
3.62255e-06
-4.7552e-06
3.0703e-06
-4.884e-06
2.48476e-06
-4.98495e-06
1.87254e-06
-5.05904e-06
1.23929e-06
-5.10667e-06
5.90025e-07
-5.12756e-06
-7.05707e-08
-5.12067e-06
-7.3776e-07
-5.08423e-06
-1.4064e-06
-5.01574e-06
-2.07058e-06
-4.91213e-06
-2.72319e-06
-4.7699e-06
-3.35558e-06
-4.58545e-06
-3.95712e-06
-4.35542e-06
-4.51493e-06
-4.07728e-06
-5.01354e-06
-3.74993e-06
-5.43484e-06
-3.37453e-06
-5.75813e-06
-2.95529e-06
-5.96055e-06
-2.50035e-06
-6.01786e-06
-2.02255e-06
-5.90568e-06
-1.53986e-06
-5.60121e-06
-1.07544e-06
-5.0854e-06
-6.57171e-07
-4.3453e-06
-3.16462e-07
-3.37628e-06
-8.65199e-08
-2.18382e-06
-7.85952e-07
-8.00477e-08
8.24437e-07
-2.90695e-07
2.26035e-06
-6.00015e-07
3.46217e-06
-9.76597e-07
4.42333e-06
-1.3919e-06
5.1494e-06
-1.82167e-06
5.65438e-06
-2.24658e-06
5.95791e-06
-2.65227e-06
6.08282e-06
-3.029e-06
6.05299e-06
-3.3709e-06
5.89173e-06
-3.67528e-06
5.62068e-06
-3.94179e-06
5.25918e-06
-4.17175e-06
4.82402e-06
-4.3675e-06
4.32936e-06
-4.53191e-06
3.78695e-06
-4.66794e-06
3.20633e-06
-4.77837e-06
2.59518e-06
-4.86549e-06
1.95966e-06
-4.93096e-06
1.30476e-06
-4.97565e-06
6.34711e-07
-4.99953e-06
-4.66899e-08
-5.00163e-06
-7.35657e-07
-4.98001e-06
-1.42803e-06
-4.93174e-06
-2.11884e-06
-4.85305e-06
-2.80188e-06
-4.73944e-06
-3.46919e-06
-4.58596e-06
-4.1106e-06
-4.38762e-06
-4.71328e-06
-4.13992e-06
-5.26124e-06
-3.83963e-06
-5.73513e-06
-3.48568e-06
-6.11208e-06
-3.08025e-06
-6.36599e-06
-2.62986e-06
-6.46824e-06
-2.14654e-06
-6.389e-06
-1.64861e-06
-6.09915e-06
-1.16102e-06
-5.57299e-06
-7.15005e-07
-4.79131e-06
-3.46811e-07
-3.74448e-06
-9.55226e-08
-2.43511e-06
-8.81474e-07
-8.75267e-08
9.11963e-07
-3.15611e-07
2.48844e-06
-6.46554e-07
3.79312e-06
-1.04356e-06
4.82033e-06
-1.47389e-06
5.57973e-06
-1.91056e-06
6.09106e-06
-2.33303e-06
6.38037e-06
-2.72696e-06
6.47674e-06
-3.08354e-06
6.40957e-06
-3.3985e-06
6.20668e-06
-3.671e-06
5.89318e-06
-3.90271e-06
5.49088e-06
-4.09684e-06
5.01815e-06
-4.25754e-06
4.49005e-06
-4.38922e-06
3.91864e-06
-4.49622e-06
3.31333e-06
-4.58241e-06
2.68138e-06
-4.65102e-06
2.02826e-06
-4.7044e-06
1.35814e-06
-4.74393e-06
6.74246e-07
-4.76992e-06
-2.06972e-08
-4.78152e-06
-7.24059e-07
-4.77667e-06
-1.43288e-06
-4.75211e-06
-2.1434e-06
-4.70341e-06
-2.85058e-06
-4.62509e-06
-3.54751e-06
-4.51081e-06
-4.22488e-06
-4.35381e-06
-4.87028e-06
-4.1474e-06
-5.46765e-06
-3.8858e-06
-5.99673e-06
-3.56517e-06
-6.4327e-06
-3.18493e-06
-6.74623e-06
-2.74921e-06
-6.90396e-06
-2.26846e-06
-6.86975e-06
-1.76072e-06
-6.60689e-06
-1.25247e-06
-6.08124e-06
-7.78562e-07
-5.26522e-06
-3.80903e-07
-4.14214e-06
-1.05825e-07
-2.71018e-06
-9.87299e-07
-9.65045e-08
1.00847e-06
-3.44934e-07
2.73687e-06
-7.00012e-07
4.1482e-06
-1.11808e-06
5.2384e-06
-1.56134e-06
6.02299e-06
-1.99989e-06
6.52961e-06
-2.41221e-06
6.79269e-06
-2.78455e-06
6.84909e-06
-3.10977e-06
6.73479e-06
-3.38584e-06
6.48275e-06
-3.61443e-06
6.12178e-06
-3.79967e-06
5.67612e-06
-3.94707e-06
5.16555e-06
-4.06277e-06
4.60576e-06
-4.15293e-06
4.0088e-06
-4.2233e-06
3.38369e-06
-4.27891e-06
2.73699e-06
-4.32391e-06
2.07327e-06
-4.36139e-06
1.39562e-06
-4.39325e-06
7.06112e-07
-4.42018e-06
6.22701e-09
-4.4415e-06
-7.02741e-07
-4.45515e-06
-1.41923e-06
-4.45763e-06
-2.14092e-06
-4.44398e-06
-2.86423e-06
-4.40781e-06
-3.58368e-06
-4.34148e-06
-4.29121e-06
-4.23639e-06
-4.97537e-06
-4.08349e-06
-5.62055e-06
-3.87409e-06
-6.20613e-06
-3.60099e-06
-6.7058e-06
-3.26005e-06
-7.08718e-06
-2.85203e-06
-7.31198e-06
-2.3847e-06
-7.33708e-06
-1.8749e-06
-7.11669e-06
-1.3501e-06
-6.60605e-06
-8.48829e-07
-5.76649e-06
-4.19616e-07
-4.57135e-06
-1.17782e-07
-3.01202e-06
-1.10508e-06
-1.07556e-07
1.11602e-06
-3.802e-07
3.00951e-06
-7.62487e-07
4.53048e-06
-1.20194e-06
5.67786e-06
-1.65474e-06
6.47579e-06
-2.088e-06
6.96286e-06
-2.4798e-06
7.18448e-06
-2.8179e-06
7.18719e-06
-3.09778e-06
7.01468e-06
-3.32057e-06
6.70554e-06
-3.49116e-06
6.29236e-06
-3.61665e-06
5.80161e-06
-3.70519e-06
5.2541e-06
-3.76512e-06
4.66569e-06
-3.80439e-06
4.04806e-06
-3.83017e-06
3.40947e-06
-3.84862e-06
2.75544e-06
-3.86476e-06
2.0894e-06
-3.88234e-06
1.4132e-06
-3.9038e-06
7.27577e-07
-3.9302e-06
3.26296e-08
-3.96114e-06
-6.71809e-07
-3.99464e-06
-1.38572e-06
-4.02712e-06
-2.10844e-06
-4.05328e-06
-2.83808e-06
-4.06602e-06
-3.57094e-06
-4.05656e-06
-4.30067e-06
-4.01455e-06
-5.01737e-06
-3.92853e-06
-5.70657e-06
-3.78662e-06
-6.34804e-06
-3.57775e-06
-6.91467e-06
-3.29332e-06
-7.37161e-06
-2.9295e-06
-7.6758e-06
-2.49001e-06
-7.77657e-06
-1.98907e-06
-7.61763e-06
-1.45408e-06
-7.14104e-06
-9.27079e-07
-6.29348e-06
-4.64169e-07
-5.03426e-06
-1.31905e-07
-3.34428e-06
-1.23699e-06
-1.21521e-07
1.23754e-06
-4.23535e-07
3.31153e-06
-8.36675e-07
4.94362e-06
-1.29707e-06
6.13826e-06
-1.7539e-06
6.93262e-06
-2.17159e-06
7.38055e-06
-2.5289e-06
7.5418e-06
-2.81649e-06
7.47477e-06
-3.03379e-06
7.23198e-06
-3.1862e-06
6.85795e-06
-3.28261e-06
6.38877e-06
-3.33364e-06
5.85263e-06
-3.35031e-06
5.27077e-06
-3.34323e-06
4.65862e-06
-3.32211e-06
4.02693e-06
-3.2954e-06
3.38276e-06
-3.27025e-06
2.73029e-06
-3.2524e-06
2.07155e-06
-3.24617e-06
1.40696e-06
-3.25445e-06
7.35856e-07
-3.27867e-06
5.68501e-08
-3.31873e-06
-6.31745e-07
-3.37291e-06
-1.33154e-06
-3.43774e-06
-2.04361e-06
-3.5078e-06
-2.76802e-06
-3.57564e-06
-3.5031e-06
-3.63161e-06
-4.24469e-06
-3.66392e-06
-4.98506e-06
-3.65882e-06
-5.71167e-06
-3.6012e-06
-6.40565e-06
-3.47566e-06
-7.04021e-06
-3.26831e-06
-7.57896e-06
-2.96935e-06
-7.97476e-06
-2.57662e-06
-8.1693e-06
-2.09972e-06
-8.09453e-06
-1.56424e-06
-7.67652e-06
-1.01492e-06
-6.8428e-06
-5.16278e-07
-5.5329e-06
-1.48959e-07
-3.7116e-06
-1.38595e-06
-1.3966e-07
1.3772e-06
-4.77908e-07
3.64977e-06
-9.25944e-07
5.39166e-06
-1.40521e-06
6.61753e-06
-1.85711e-06
7.38452e-06
-2.24439e-06
7.76783e-06
-2.54841e-06
7.84581e-06
-2.76469e-06
7.69106e-06
-2.89844e-06
7.36572e-06
-2.96056e-06
6.92007e-06
-2.96479e-06
6.39301e-06
-2.92565e-06
5.81348e-06
-2.85712e-06
5.20224e-06
-2.772e-06
4.57349e-06
-2.68147e-06
3.93641e-06
-2.59505e-06
3.29634e-06
-2.52055e-06
2.6558e-06
-2.46419e-06
2.01519e-06
-2.43066e-06
1.37343e-06
-2.42316e-06
7.28356e-07
-2.44344e-06
7.71373e-08
-2.49177e-06
-5.83418e-07
-2.56678e-06
-1.25653e-06
-2.66534e-06
-1.94506e-06
-2.78229e-06
-2.65106e-06
-2.91023e-06
-3.37517e-06
-3.03915e-06
-4.11577e-06
-3.1563e-06
-4.86791e-06
-3.2461e-06
-5.62188e-06
-3.2904e-06
-6.36135e-06
-3.26936e-06
-7.06125e-06
-3.16305e-06
-7.68526e-06
-2.95432e-06
-8.18349e-06
-2.63291e-06
-8.49072e-06
-2.201e-06
-8.52644e-06
-1.67958e-06
-8.19794e-06
-1.11427e-06
-7.40811e-06
-5.78377e-07
-6.06879e-06
-1.70109e-07
-4.11987e-06
-1.55605e-06
-1.63913e-07
1.54112e-06
-5.47467e-07
4.03333e-06
-1.03427e-06
5.87847e-06
-1.52711e-06
7.11037e-06
-1.95958e-06
7.81699e-06
-2.29505e-06
8.1033e-06