/*--------------------------------*- C++ -*----------------------------------*\
| =========                 |                                                 |
| \\      /  F ield         | OpenFOAM: The Open Source CFD Toolbox           |
|  \\    /   O peration     | Version:  2312                                  |
|   \\  /    A nd           | Website:  www.openfoam.com                      |
|    \\/     M anipulation  |                                                 |
\*---------------------------------------------------------------------------*/
FoamFile
{
    version     2.0;
    format      ascii;
    arch        "LSB;label=32;scalar=64";
    class       volScalarField;
    location    "0.6";
    object      Ux;
}
// * * * * * * * * * * * * * * * * * * * * * * * * * * * * * * * * * * * * * //

dimensions      [0 1 -1 0 0 0 0];

internalField   nonuniform List<scalar> 
1600
(
6.06054e-05
0.000156108
0.000157008
6.553e-06
-0.000303661
-0.000757228
-0.00132967
-0.00199399
-0.00272295
-0.00349026
-0.00427116
-0.00504279
-0.00578427
-0.00647683
-0.00710384
-0.00765079
-0.00810535
-0.00845737
-0.00869892
-0.00882436
-0.00883039
-0.00871615
-0.00848333
-0.00813622
-0.00768184
-0.00712997
-0.00649318
-0.00578681
-0.00502892
-0.00424012
-0.00344333
-0.00266353
-0.00192723
-0.00126197
-0.000695346
-0.000253618
4.06778e-05
0.000174386
0.000160459
6.03125e-05
5.87256e-05
7.25708e-05
-0.000178706
-0.000773506
-0.0017263
-0.00301052
-0.00457754
-0.00636794
-0.0083179
-0.0103632
-0.0124414
-0.0144938
-0.0164657
-0.0183074
-0.0199748
-0.0214289
-0.0226368
-0.0235712
-0.0242109
-0.0245411
-0.0245533
-0.0242455
-0.0236228
-0.0226971
-0.0214876
-0.0200208
-0.0183302
-0.0164567
-0.0144477
-0.012357
-0.0102436
-0.00817097
-0.00620522
-0.00441317
-0.00285929
-0.00160139
-0.000683978
-0.000127237
9.19824e-05
6.17817e-05
1.14539e-05
-0.000172101
-0.000804771
-0.00193267
-0.00355667
-0.00564076
-0.00812008
-0.0109131
-0.0139302
-0.0170794
-0.0202698
-0.0234147
-0.0264325
-0.029249
-0.031797
-0.0340179
-0.0358614
-0.0372863
-0.0382606
-0.0387618
-0.0387772
-0.0383043
-0.0373511
-0.0359361
-0.0340887
-0.0318492
-0.0292686
-0.0264082
-0.0233393
-0.0201419
-0.0169034
-0.0137168
-0.010678
-0.0078825
-0.0054209
-0.00337277
-0.00179783
-0.000724069
-0.000139131
1.76569e-05
-4.54587e-05
-0.000464788
-0.00153666
-0.00324434
-0.0055587
-0.0084287
-0.0117733
-0.0154925
-0.0194764
-0.0236116
-0.0277853
-0.0318885
-0.0358187
-0.0394816
-0.042792
-0.0456749
-0.0480663
-0.0499133
-0.0511752
-0.0518233
-0.0518416
-0.0512271
-0.0499902
-0.0481548
-0.0457588
-0.0428536
-0.0395042
-0.0357886
-0.031797
-0.0276301
-0.0233979
-0.0192162
-0.0152044
-0.0114803
-0.00815521
-0.00532731
-0.00307209
-0.00143148
-0.000420583
-3.67579e-05
-0.000100579
-0.000761813
-0.00229157
-0.00459694
-0.00760834
-0.0112537
-0.0154332
-0.0200287
-0.0249125
-0.0299532
-0.0350199
-0.0399861
-0.0447322
-0.049148
-0.0531337
-0.0566014
-0.0594757
-0.0616947
-0.0632102
-0.0639888
-0.0640117
-0.0632753
-0.0617921
-0.0595901
-0.0567137
-0.0532234
-0.0491951
-0.0447203
-0.0399039
-0.0348638
-0.0297275
-0.02463
-0.0197096
-0.0151032
-0.0109411
-0.00734005
-0.00439423
-0.00216584
-0.000708018
-8.9737e-05
-0.000150852
-0.00104669
-0.00303179
-0.00593461
-0.00963998
-0.01405
-0.0190431
-0.0244817
-0.0302207
-0.0361123
-0.0420101
-0.0477727
-0.0532666
-0.0583685
-0.0629671
-0.0669639
-0.0702746
-0.0728299
-0.0745759
-0.075475
-0.075506
-0.0746649
-0.0729653
-0.0704385
-0.0671339
-0.0631185
-0.0584773
-0.053312
-0.0477397
-0.0418919
-0.0359112
-0.0299487
-0.0241597
-0.0186991
-0.0137158
-0.009347
-0.00570905
-0.00288941
-0.000984639
-0.000138053
-0.000196181
-0.00131505
-0.00374348
-0.00723413
-0.0116246
-0.0167882
-0.0225788
-0.0288379
-0.0354023
-0.0421084
-0.0487952
-0.0553085
-0.0615029
-0.0672443
-0.0724119
-0.0768987
-0.0806135
-0.083481
-0.0854425
-0.0864572
-0.0865017
-0.0855713
-0.0836803
-0.0808619
-0.077169
-0.0726739
-0.0674679
-0.0616609
-0.0553802
-0.0487685
-0.0419816
-0.0351852
-0.0285508
-0.0222512
-0.0164553
-0.0113229
-0.00699548
-0.0035893
-0.00124628
-0.000181581
-0.000237496
-0.0015681
-0.00442555
-0.00849126
-0.013556
-0.0194624
-0.026038
-0.0331017
-0.0404715
-0.0479675
-0.0554152
-0.0626479
-0.0695101
-0.0758587
-0.0815647
-0.0865147
-0.0906116
-0.0937755
-0.0959442
-0.0970736
-0.0971386
-0.0961336
-0.0940726
-0.0909901
-0.0869409
-0.0820008
-0.076266
-0.0698529
-0.0628966
-0.0555498
-0.0479802
-0.0403674
-0.0328993
-0.0257673
-0.0191617
-0.013267
-0.0082528
-0.00426624
-0.00149476
-0.000221335
-0.000275936
-0.00180919
-0.00508293
-0.0097117
-0.0154405
-0.0220804
-0.0294315
-0.0372886
-0.0454499
-0.053719
-0.0619077
-0.0698382
-0.0773452
-0.0842778
-0.0905007
-0.0958951
-0.100359
-0.10381
-0.106182
-0.107428
-0.107523
-0.106458
-0.104247
-0.100924
-0.0965457
-0.0911893
-0.0849543
-0.0779617
-0.0703535
-0.0622909
-0.0539527
-0.0455324
-0.0372342
-0.0292695
-0.0218518
-0.0151926
-0.00949127
-0.00492767
-0.00173437
-0.000258614
-0.000312557
-0.0020422
-0.00572293
-0.0109056
-0.0172906
-0.0246572
-0.0327765
-0.0414188
-0.0503615
-0.0593914
-0.0683065
-0.076918
-0.0850522
-0.0925514
-0.0992749
-0.1051
-0.109921
-0.113652
-0.116226
-0.117594
-0.117728
-0.116618
-0.114277
-0.110737
-0.106055
-0.100308
-0.0935981
-0.0860489
-0.0778076
-0.0690434
-0.0599454
-0.0507208
-0.041591
-0.0327884
-0.0245513
-0.0171202
-0.0107265
-0.0055839
-0.00197015
-0.000294679
-0.000348261
-0.00227092
-0.00635342
-0.0120849
-0.0191214
-0.0272102
-0.036093
-0.0455142
-0.05523
-0.0650099
-0.0746385
-0.0839164
-0.0926621
-0.100712
-0.107921
-0.114164
-0.119334
-0.123341
-0.126118
-0.127614
-0.127798
-0.126659
-0.124208
-0.120476
-0.115516
-0.109405
-0.102245
-0.0941615
-0.0853054
-0.0758524
-0.0660015
-0.0559733
-0.0460072
-0.0363575
-0.0272892
-0.0190736
-0.0119762
-0.0062462
-0.00220724
-0.000330675
-0.000383799
-0.00249879
-0.006982
-0.0132611
-0.0209481
-0.0297572
-0.0394001
-0.0495947
-0.0600753
-0.0705942
-0.0809224
-0.0908508
-0.100191
-0.108774
-0.116454
-0.123101
-0.128609
-0.132888
-0.135868
-0.137498
-0.137745
-0.136596
-0.134058
-0.130159
-0.12495
-0.118505
-0.110923
-0.102331
-0.0928808
-0.0827539
-0.0721581
-0.0613273
-0.050519
-0.0400105
-0.0300952
-0.0210773
-0.0132586
-0.00692588
-0.00245053
-0.000367617
-0.0004198
-0.00272886
-0.00761563
-0.0144454
-0.022785
-0.0323148
-0.0427153
-0.0536772
-0.0649127
-0.0761566
-0.0871669
-0.0977257
-0.107638
-0.116734
-0.124863
-0.131898
-0.137731
-0.142274
-0.145457
-0.147226
-0.147549
-0.14641
-0.143811
-0.139776
-0.134352
-0.127608
-0.119639
-0.11057
-0.100553
-0.0897721
-0.0784438
-0.0668142
-0.0551589
-0.0437791
-0.032998
-0.0231553
-0.0145915
-0.00763378
-0.00270462
-0.00040642
-0.000456798
-0.00296384
-0.00826065
-0.0156479
-0.024645
-0.0348973
-0.0460527
-0.0577741
-0.0697508
-0.0817007
-0.0933695
-0.104531
-0.114988
-0.124566
-0.133117
-0.140516
-0.146656
-0.151451
-0.154832
-0.156746
-0.157158
-0.15605
-0.153419
-0.149285
-0.143687
-0.136687
-0.128375
-0.11887
-0.108322
-0.0969169
-0.0848761
-0.0724572
-0.0599535
-0.0476909
-0.0360239
-0.0253299
-0.0159915
-0.00838022
-0.00297383
-0.00044792
-0.000495269
-0.00320619
-0.00892288
-0.0168775
-0.0265397
-0.0375169
-0.0494232
-0.0618924
-0.0745911
-0.0872203
-0.0995148
-0.111243
-0.122203
-0.132224
-0.14116
-0.148888
-0.155308
-0.160336
-0.163906
-0.165967
-0.166481
-0.165428
-0.1628
-0.15861
-0.152887
-0.145685
-0.137086
-0.127199
-0.116169
-0.104181
-0.0914589
-0.0782693
-0.0649223
-0.0517688
-0.0391959
-0.0276217
-0.0174746
-0.009175
-0.00326229
-0.000492913
-0.000535667
-0.00345829
-0.00960788
-0.0181431
-0.0284794
-0.0401838
-0.0528341
-0.066034
-0.0794271
-0.0926985
-0.105574
-0.117816
-0.129226
-0.139636
-0.148904
-0.156917
-0.163579
-0.168813
-0.172557
-0.174761
-0.17539
-0.174417
-0.17183
-0.167633
-0.161846
-0.15451
-0.145694
-0.135495
-0.124051
-0.111538
-0.09818
-0.0842511
-0.070076
-0.0560297
-0.0425336
-0.0300492
-0.0190556
-0.0100275
-0.003574
-0.000542182
-0.000578467
-0.00372261
-0.0103213
-0.0194531
-0.0304739
-0.0429063
-0.0562893
-0.070195
-0.084244
-0.0981069
-0.111502
-0.124191
-0.135979
-0.146705
-0.156237
-0.164472
-0.171323
-0.176724
-0.180617
-0.182958
-0.183709
-0.182843
-0.180342
-0.176198
-0.170419
-0.163031
-0.154087
-0.143667
-0.131895
-0.118935
-0.105008
-0.0903886
-0.0754144
-0.0604835
-0.0460524
-0.032629
-0.0207484
-0.0109471
-0.00391303
-0.000596535
-0.000624207
-0.00400191
-0.0110696
-0.0208169
-0.0325333
-0.0456921
-0.05979
-0.074366
-0.0890182
-0.103404
-0.117237
-0.130284
-0.142355
-0.153303
-0.163009
-0.171385
-0.178357
-0.18387
-0.187877
-0.190338
-0.191219
-0.190488
-0.188121
-0.184098
-0.178413
-0.171073
-0.162109
-0.151583
-0.139595
-0.126294
-0.111888
-0.0966504
-0.0809254
-0.0651324
-0.0497632
-0.0353757
-0.0225667
-0.011943
-0.00428359
-0.000656844
-0.000673557
-0.00429957
-0.0118602
-0.0222452
-0.0346687
-0.0485483
-0.0633346
-0.0785319
-0.0937162
-0.108535
-0.122701
-0.135988
-0.148222
-0.159271
-0.169036
-0.177448
-0.184451
-0.190007
-0.194078
-0.196635
-0.197645
-0.197077
-0.194896
-0.191073
-0.185582
-0.178409
-0.16956
-0.159069
-0.147008
-0.133502
-0.11874
-0.102984
-0.0865818
-0.0699689
-0.0536721
-0.0383019
-0.0245239
-0.0130253
-0.00469033
-0.000724093
-0.000727391
-0.00461994
-0.0127028
-0.0237516
-0.0368936
-0.0514831
-0.0669196
-0.0826712
-0.0982933
-0.113427
-0.12779
-0.14117
-0.153413
-0.16441
-0.174091
-0.182407
-0.189329
-0.194836
-0.198908
-0.201524
-0.202658
-0.202277
-0.20034
-0.196804
-0.191623
-0.184757
-0.176183
-0.165899
-0.153944
-0.140407
-0.125449
-0.109313
-0.0923391
-0.0749749
-0.0577795
-0.0414186
-0.0266337
-0.0142047
-0.00513854
-0.000799447
-0.000786897
-0.00496884
-0.0136101
-0.0253535
-0.0392251
-0.0545059
-0.070539
-0.0867552
-0.102692
-0.117988
-0.132376
-0.145663
-0.157724
-0.168483
-0.1779
-0.18596
-0.192661
-0.198006
-0.201995
-0.20462
-0.205864
-0.205692
-0.204059
-0.200906
-0.196166
-0.189771
-0.181659
-0.171791
-0.16016
-0.146811
-0.131864
-0.115529
-0.0981308
-0.0801185
-0.0620791
-0.044735
-0.0289111
-0.0154938
-0.00563457
-0.000884342
-0.000853725
-0.0053542
-0.014599
-0.0270741
-0.0416852
-0.0576283
-0.0741842
-0.0907459
-0.106837
-0.122104
-0.136299
-0.149263
-0.160908
-0.171199
-0.180138
-0.187747
-0.194058
-0.199103
-0.202907
-0.205477
-0.206805
-0.206861
-0.205591
-0.202925
-0.198771
-0.19303
-0.185601
-0.176395
-0.165351
-0.152459
-0.137783
-0.121488
-0.103864
-0.085351
-0.0665568
-0.0482586
-0.0313725
-0.0169077
-0.00618631
-0.000980614
-0.000930196
-0.00578696
-0.0156927
-0.0289442
-0.0443026
-0.0608642
-0.0778416
-0.0945918
-0.110632
-0.125625
-0.139358
-0.151717
-0.162663
-0.172214
-0.180419
-0.187346
-0.193068
-0.197651
-0.201144
-0.203578
-0.204954
-0.205248
-0.204402
-0.202331
-0.198922
-0.194041
-0.187542
-0.179282
-0.169138
-0.157029
-0.142949
-0.126996
-0.109409
-0.090602
-0.0711876
-0.0519948
-0.0340373
-0.0184652
-0.00680398
-0.00109069
-0.00101962
-0.00628234
-0.0169227
-0.0310047
-0.0471133
-0.0642285
-0.0814895
-0.0982217
-0.113947
-0.128362
-0.141301
-0.152714
-0.162624
-0.171112
-0.178286
-0.184265
-0.189169
-0.1931
-0.196139
-0.198337
-0.199713
-0.200247
-0.19988
-0.198516
-0.196018
-0.192219
-0.186927
-0.179938
-0.171057
-0.16012
-0.147031
-0.131802
-0.114596
-0.0957717
-0.0759323
-0.0559463
-0.0369287
-0.0201908
-0.0075012
-0.00121788
-0.00112674
-0.00686165
-0.0183318
-0.0333092
-0.0501618
-0.0677345
-0.0850904
-0.101533
-0.116608
-0.130063
-0.141807
-0.151866
-0.160345
-0.167399
-0.173202
-0.177934
-0.181763
-0.18483
-0.187251
-0.189101
-0.190413
-0.191179
-0.19134
-0.19079
-0.189374
-0.186892
-0.183105
-0.177747
-0.170542
-0.161231
-0.149611
-0.135578
-0.119189
-0.10072
-0.0807306
-0.0601109
-0.040075
-0.0221165
-0.00829659
-0.00136683
-0.00125852
-0.00755487
-0.0199782
-0.0359267
-0.0534997
-0.0713869
-0.0885784
-0.104374
-0.11837
-0.130396
-0.140459
-0.148687
-0.155281
-0.160481
-0.164539
-0.167695
-0.170169
-0.172145
-0.173769
-0.175143
-0.176318
-0.177296
-0.178023
-0.178387
-0.178219
-0.177292
-0.175323
-0.171983
-0.166912
-0.159747
-0.150156
-0.137895
-0.122877
-0.105251
-0.0854909
-0.0644774
-0.0435109
-0.0242858
-0.00921631
-0.00154426
-0.00142532
-0.00840476
-0.0219406
-0.0389445
-0.0571814
-0.0751688
-0.0918374
-0.106517
-0.118891
-0.128913
-0.136719
-0.142564
-0.146762
-0.14965
-0.151559
-0.152793
-0.153622
-0.15427
-0.154913
-0.155677
-0.15663
-0.157788
-0.159104
-0.160467
-0.1617
-0.162557
-0.162717
-0.161796
-0.159352
-0.154908
-0.147993
-0.138193
-0.125233
-0.109083
-0.0900724
-0.0690179
-0.0472773
-0.0267574
-0.0102979
-0.00176022
-0.00164301
-0.00947298
-0.0243256
-0.0424689
-0.0612535
-0.0790172
-0.0946652
-0.10761
-0.11768
-0.125002
-0.12988
-0.13272
-0.133966
-0.134057
-0.133403
-0.132368
-0.131267
-0.130357
-0.129839
-0.129859
-0.130502
-0.131796
-0.133706
-0.136129
-0.138889
-0.141731
-0.144313
-0.146205
-0.146892
-0.145791
-0.142275
-0.135739
-0.125679
-0.111815
-0.0942555
-0.0736714
-0.0514194
-0.0296116
-0.0115962
-0.00203022
-0.00193669
-0.0108501
-0.0272764
-0.0466213
-0.0657308
-0.0827794
-0.0967137
-0.107112
-0.114029
-0.117822
-0.119008
-0.118167
-0.115881
-0.112689
-0.109074
-0.105449
-0.102161
-0.0994897
-0.0976525
-0.0968069
-0.0970523
-0.0984294
-0.100917
-0.104429
-0.1088
-0.113783
-0.119032
-0.124092
-0.128398
-0.131268
-0.131933
-0.129574
-0.123416
-0.112862
-0.0976928
-0.0783146
-0.0559778
-0.0329566
-0.0131936
-0.00237909
-0.00234749
-0.0126713
-0.0309821
-0.0515231
-0.0705484
-0.086135
-0.0973929
-0.104192
-0.106915
-0.106221
-0.102878
-0.0976564
-0.0912705
-0.0843493
-0.0774282
-0.0709514
-0.065279
-0.0606965
-0.0574235
-0.0556206
-0.0553936
-0.0567947
-0.0598204
-0.0644052
-0.070412
-0.0776181
-0.0856982
-0.0942047
-0.102549
-0.109987
-0.115624
-0.118435
-0.117346
-0.111367
-0.0998273
-0.0827043
-0.0609664
-0.0369352
-0.0152152
-0.00284818
-0.00294542
-0.015142
-0.0356839
-0.0572535
-0.0754663
-0.0884621
-0.0957192
-0.0975761
-0.0948669
-0.0886234
-0.0798884
-0.0696179
-0.0586383
-0.0476376
-0.0371734
-0.0276893
-0.0195331
-0.0129738
-0.00821582
-0.00540994
-0.00466001
-0.00602606
-0.00952302
-0.0151149
-0.0227039
-0.0321143
-0.0430701
-0.0551674
-0.067842
-0.0803377
-0.0916805
-0.100675
-0.105947
-0.106059
-0.0997583
-0.0863735
-0.0663184
-0.0417242
-0.0178541
-0.0035087
-0.00385321
-0.0185759
-0.0416617
-0.0637474
-0.079886
-0.0886081
-0.0900797
-0.0853373
-0.075795
-0.0629039
-0.0479752
-0.0321131
-0.016207
-0.000952257
0.0131186
0.0256028
0.0361984
0.0446794
0.0508765
0.054664
0.0559496
0.0546708
0.0507945
0.0443219
0.0352994
0.0238353
0.0101251
-0.00551437
-0.0226018
-0.0404384
-0.0580533
-0.0741559
-0.0871232
-0.095063
-0.0960254
-0.0884392
-0.0717674
-0.0475092
-0.0214075
-0.00448648
-0.00528945
-0.0234448
-0.0491621
-0.0705608
-0.0825043
-0.0845081
-0.0778795
-0.0646073
-0.0467783
-0.026251
-0.00453849
0.0171928
0.0380759
0.0574832
0.0749693
0.0902211
0.10302
0.11321
0.120678
0.125339
0.127122
0.125968
0.121829
0.114668
0.104471
0.0912628
0.0751302
0.056258
0.0349809
0.0118511
-0.0122762
-0.0361461
-0.0580153
-0.0756164
-0.086268
-0.087259
-0.0765897
-0.0543883
-0.0263189
-0.00600557
-0.007638
-0.0304107
-0.0581558
-0.0763567
-0.0806745
-0.0725707
-0.0550408
-0.0312205
-0.00384686
0.0249409
0.0535851
0.0810052
0.10648
0.129545
0.149914
0.167412
0.181941
0.193439
0.201868
0.207192
0.209372
0.208361
0.204095
0.196505
0.185514
0.171052
0.153078
0.131608
0.106771
0.0788769
0.0485274
0.016756
-0.0147976
-0.0437135
-0.0667115
-0.0798323
-0.0790709
-0.0620867
-0.0331882
-0.00845484
-0.0115154
-0.0401957
-0.0676345
-0.0778112
-0.0692762
-0.046747
-0.0153563
0.0206618
0.0581811
0.0950874
0.130048
0.162278
0.191351
0.217069
0.239367
0.258253
0.273771
0.28597
0.294894
0.300564
0.302977
0.3021
0.297866
0.290172
0.278887
0.263851
0.244889
0.221833
0.194562
0.163068
0.127558
0.0886245
0.0474858
0.00630766
-0.0314471
-0.0608016
-0.0754315
-0.0691868
-0.0425781
-0.0124369
-0.0176309
-0.0527437
-0.0737203
-0.0673896
-0.0388454
0.00272844
0.0501891
0.0987926
0.14566
0.189221
0.228733
0.26394
0.294853
0.321615
0.344424
0.363483
0.37898
0.391074
0.399883
0.405484
0.407908
0.407138
0.403109
0.395699
0.384735
0.369984
0.351157
0.327917
0.299892
0.266719
0.228119
0.184043
0.134927
0.082109
0.0284452
-0.0209152
-0.0577717
-0.0711917
-0.0540313
-0.0185607
-0.0256741
-0.0642382
-0.0651048
-0.0291772
0.0271719
0.0906916
0.153787
0.212634
0.265642
0.312431
0.353207
0.388413
0.418561
0.444143
0.465596
0.483293
0.497536
0.50856
0.51654
0.52159
0.523767
0.52307
0.51944
0.512753
0.502817
0.489361
0.472028
0.450362
0.4238
0.391672
0.35322
0.307674
0.25442
0.193371
0.125692
0.0550523
-0.0104713
-0.0561879
-0.0629143
-0.0261559
-0.029223
-0.0583031
-0.0132829
0.0679726
0.155667
0.237768
0.310191
0.372228
0.424672
0.46879
0.505839
0.536917
0.56293
0.584604
0.602513
0.617109
0.628736
0.637656
0.644057
0.648064
0.649744
0.649105
0.646099
0.640618
0.632483
0.621434
0.607113
0.589042
0.56659
0.538934
0.505017
0.463508
0.412799
0.351125
0.277034
0.190553
0.0953671
0.00382155
-0.0518379
-0.0278781
0.0108431
0.0250454
0.148316
0.278984
0.384824
0.468029
0.533524
0.585242
0.626429
0.659587
0.686533
0.708578
0.726671
0.741512
0.753618
0.763374
0.771069
0.776912
0.781056
0.783599
0.784595
0.784057
0.781952
0.778202
0.772678
0.765186
0.755452
0.743098
0.727605
0.708259
0.684071
0.653653
0.615044
0.565473
0.501204
0.417566
0.308683
0.171224
0.0382228
0.0165522
0.302075
0.400777
0.563265
0.681048
0.751356
0.796431
0.827697
0.850356
0.867362
0.880512
0.890903
0.89923
0.905956
0.9114
0.915789
0.919286
0.922012
0.924053
0.92547
0.926303
0.926574
0.926288
0.925433
0.92398
0.921877
0.919048
0.915384
0.91073
0.904868
0.897491
0.888147
0.876156
0.860444
0.839232
0.809528
0.766
0.696964
0.578696
0.411356
0.306789
)
;

boundaryField
{
    movingWall
    {
        type            calculated;
        value           uniform 1;
    }
    fixedWalls
    {
        type            calculated;
        value           uniform 0;
    }
    frontAndBack
    {
        type            empty;
    }
}


// ************************************************************************* //
