/*--------------------------------*- C++ -*----------------------------------*\
| =========                 |                                                 |
| \\      /  F ield         | OpenFOAM: The Open Source CFD Toolbox           |
|  \\    /   O peration     | Version:  2312                                  |
|   \\  /    A nd           | Website:  www.openfoam.com                      |
|    \\/     M anipulation  |                                                 |
\*---------------------------------------------------------------------------*/
FoamFile
{
    version     2.0;
    format      ascii;
    arch        "LSB;label=32;scalar=64";
    class       volScalarField;
    location    "0.6";
    object      Uy;
}
// * * * * * * * * * * * * * * * * * * * * * * * * * * * * * * * * * * * * * //

dimensions      [0 1 -1 0 0 0 0];

internalField   nonuniform List<scalar> 
1600
(
-6.05039e-05
-5.71269e-05
-7.01548e-06
5.24925e-05
0.000108043
0.00015492
0.00019176
0.000218607
0.000236037
0.000244799
0.000245683
0.000239474
0.000226935
0.000208798
0.000185774
0.000158554
0.000127819
9.42488e-05
5.85338e-05
2.13819e-05
-1.64722e-05
-5.42616e-05
-9.11832e-05
-0.000126398
-0.000159034
-0.000188192
-0.000212958
-0.000232417
-0.00024567
-0.00025185
-0.000250142
-0.000239805
-0.000220203
-0.000190851
-0.00015155
-0.00010272
-4.62455e-05
1.26384e-05
6.02268e-05
6.00752e-05
-0.000156974
-6.93971e-05
0.000182575
0.000477361
0.000761592
0.0010101
0.00121159
0.00136214
0.00146167
0.00151209
0.00151636
0.00147805
0.00140104
0.00128938
0.0011472
0.000978711
0.000788164
0.000579897
0.000358343
0.000128066
-0.000106217
-0.000339618
-0.000567076
-0.000783368
-0.000983143
-0.00116098
-0.00131147
-0.00142931
-0.00150944
-0.0015472
-0.00153849
-0.00148004
-0.00136967
-0.00120682
-0.000993377
-0.000735402
-0.000446453
-0.000153707
8.83651e-05
0.000160845
-0.000162803
0.00017878
0.000814713
0.00153761
0.00224041
0.0028636
0.00337558
0.00376196
0.00401859
0.00414743
0.00415417
0.00404679
0.00383475
0.00352835
0.00313852
0.00267655
0.0021541
0.00158312
0.000975906
0.000345122
-0.000296153
-0.000934416
-0.00155575
-0.0021459
-0.00269033
-0.00317448
-0.00358391
-0.0039047
-0.00412374
-0.00422926
-0.00421137
-0.0040628
-0.00377983
-0.00336372
-0.00282292
-0.00217675
-0.00146187
-0.000742116
-0.000126793
0.000180132
-2.18819e-05
0.000768881
0.00194313
0.00322922
0.00447142
0.00557482
0.00648441
0.00717207
0.0076272
0.00785049
0.00785008
0.007639
0.00723353
0.00665207
0.00591449
0.00504172
0.00405551
0.00297834
0.00183341
0.000644625
-0.000563318
-0.00176499
-0.00293425
-0.00404442
-0.00506847
-0.00597937
-0.00675059
-0.00735667
-0.00777396
-0.00798156
-0.00796243
-0.00770475
-0.00720379
-0.00646432
-0.00550422
-0.00435997
-0.00309512
-0.00181196
-0.000670556
5.96808e-05
0.000278998
0.00173082
0.00359496
0.00556025
0.00743392
0.00909082
0.010454
0.0114814
0.0121551
0.012474
0.0124486
0.0120973
0.0114439
0.0105163
0.00934488
0.00796198
0.00640153
0.00469875
0.00289006
0.00101308
-0.000893405
-0.00278949
-0.00463424
-0.00638598
-0.00800261
-0.00944223
-0.0106638
-0.0116283
-0.0122997
-0.0126464
-0.0126434
-0.0122738
-0.0115322
-0.0104275
-0.00898816
-0.00726852
-0.00535818
-0.00339361
-0.00157533
-0.000215152
0.000733414
0.00306532
0.00577744
0.00853801
0.0111288
0.0134016
0.0152611
0.0166531
0.0175535
0.0179595
0.0178845
0.0173528
0.0163968
0.0150548
0.0133689
0.0113846
0.00914955
0.00671353
0.00412804
0.00144632
-0.00127674
-0.00398471
-0.00661982
-0.00912329
-0.0114359
-0.0134989
-0.0152549
-0.0166493
-0.0176321
-0.0181598
-0.0181981
-0.0177245
-0.0167323
-0.0152344
-0.0132691
-0.0109074
-0.00826171
-0.00549688
-0.00284359
-0.000638675
0.001331
0.00476089
0.00848283
0.0121568
0.0155489
0.0184947
0.0208858
0.0226591
0.0237858
0.0242634
0.0241089
0.0233537
0.0220397
0.0202168
0.0179401
0.0152694
0.0122675
0.00900012
0.00553524
0.00194328
-0.00170327
-0.0053299
-0.00886035
-0.0122172
-0.0153224
-0.0180986
-0.0204703
-0.0223659
-0.0237198
-0.0244751
-0.0245868
-0.0240256
-0.022782
-0.0208716
-0.0183409
-0.0152748
-0.0118046
-0.0081175
-0.00446593
-0.00120115
0.00206203
0.00680292
0.0116976
0.0164049
0.0206828
0.0243571
0.0273115
0.0294775
0.0308249
0.0313534
0.0310856
0.0300613
0.0283335
0.0259645
0.023024
0.0195869
0.0157323
0.011543
0.0071046
0.00250571
-0.00216243
-0.00680608
-0.0113294
-0.0156348
-0.0196244
-0.0232006
-0.0262685
-0.0287378
-0.0305254
-0.0315595
-0.0317826
-0.0311565
-0.0296672
-0.0273307
-0.0241989
-0.0203671
-0.0159817
-0.0112467
-0.00643059
-0.00189368
0.00291867
0.00917796
0.0154081
0.0212704
0.0265198
0.0309782
0.0345258
0.0370933
0.0386524
0.0392079
0.0387901
0.0374495
0.0352512
0.032272
0.0285968
0.024317
0.0195289
0.0143331
0.00883365
0.00313802
-0.00264304
-0.00839583
-0.014004
-0.0193491
-0.024312
-0.028774
-0.0326189
-0.0357362
-0.0380238
-0.0393925
-0.0397702
-0.0391075
-0.037383
-0.03461
-0.0308428
-0.0261835
-0.0207893
-0.0148771
-0.00872802
-0.00270968
0.00389539
0.0118756
0.0196032
0.0267432
0.0330513
0.0383497
0.0425201
0.0454963
0.0472559
0.0478118
0.0472053
0.0454994
0.0427737
0.0391206
0.0346419
0.0294461
0.0236478
0.0173659
0.0107232
0.00384671
-0.00313309
-0.0100821
-0.016863
-0.0233358
-0.0293593
-0.0347924
-0.0394966
-0.0433392
-0.046197
-0.0479611
-0.048542
-0.0478759
-0.0459308
-0.0427138
-0.0382776
-0.0327276
-0.0262282
-0.0190062
-0.0113532
-0.00364543
0.00498889
0.0148893
0.0242756
0.0328165
0.0402712
0.0464659
0.0512879
0.0546786
0.0566254
0.0571533
0.0563173
0.0541957
0.0508851
0.0464951
0.0411456
0.0349636
0.0280821
0.0206389
0.0127761
0.00463989
-0.00361935
-0.0118471
-0.0198848
-0.0275708
-0.034741
-0.0412311
-0.0468787
-0.0515272
-0.0550299
-0.0572555
-0.0580937
-0.0574627
-0.0553161
-0.0516505
-0.0465131
-0.0400085
-0.0323049
-0.023637
-0.0143064
-0.00470005
0.00619781
0.0182163
0.029422
0.0394873
0.0481765
0.0553233
0.0608244
0.0646335
0.066752
0.0672208
0.0661122
0.0635234
0.0595697
0.0543804
0.0480946
0.0408588
0.0328253
0.0241506
0.014996
0.00552673
-0.00408732
-0.0136715
-0.0230464
-0.0320283
-0.0404301
-0.0480633
-0.0547405
-0.0602792
-0.0645067
-0.0672657
-0.0684219
-0.067871
-0.0655474
-0.0614327
-0.0555639
-0.0480409
-0.0390327
-0.0287796
-0.0175935
-0.0058754
0.00752259
0.0218573
0.0350436
0.0467565
0.0567673
0.0649201
0.0711257
0.075354
0.0776253
0.0780007
0.0765741
0.0734644
0.0688089
0.0627584
0.055473
0.0471193
0.0378692
0.0278983
0.0173862
0.00651686
-0.00452115
-0.0155338
-0.0263214
-0.0366786
-0.0463952
-0.0552579
-0.063053
-0.06957
-0.0746074
-0.0779788
-0.079521
-0.0791027
-0.0766338
-0.0720753
-0.0654491
-0.0568456
-0.0464312
-0.0344505
-0.0212258
-0.00717585
0.00896513
0.0258165
0.0411452
0.0546283
0.0660459
0.075256
0.0821873
0.0868312
0.0892316
0.0894752
0.0876815
0.0839951
0.0785781
0.0716053
0.0632591
0.0537275
0.0432017
0.0318762
0.0199485
0.00761972
-0.00490377
-0.0174099
-0.0296796
-0.0414868
-0.0525985
-0.0627763
-0.0717789
-0.0793661
-0.0853047
-0.0893751
-0.0913806
-0.0911569
-0.0885834
-0.0835947
-0.0761909
-0.0664482
-0.0545266
-0.0406727
-0.02522
-0.00860813
0.0105287
0.0301008
0.047735
0.0631102
0.0760169
0.0863306
0.0940029
0.0990523
0.101552
0.10162
0.099405
0.0950828
0.0888436
0.0808882
0.0714232
0.0606582
0.0488044
0.0360741
0.0226814
0.00884367
-0.0052171
-0.0192724
-0.0330855
-0.0464108
-0.0589934
-0.0705698
-0.0808703
-0.0896233
-0.0965606
-0.101425
-0.103982
-0.104026
-0.101401
-0.0960063
-0.0878137
-0.0768789
-0.0633507
-0.0474754
-0.0295976
-0.0101811
0.0122178
0.0347201
0.0548248
0.072212
0.0866856
0.0981426
0.106563
0.111999
0.11456
0.114399
0.111704
0.106683
0.0995592
0.090562
0.0799237
0.0678762
0.0546501
0.0404747
0.0255793
0.010195
-0.00544252
-0.0210908
-0.0364978
-0.0514003
-0.0655227
-0.0785771
-0.0902654
-0.100282
-0.108322
-0.114086
-0.117294
-0.117695
-0.115085
-0.109323
-0.100342
-0.0881708
-0.0729403
-0.0548934
-0.0343849
-0.0119059
0.0140381
0.039687
0.0624291
0.0819461
0.0980579
0.110689
0.119854
0.125645
0.128217
0.127766
0.124523
0.118736
0.110663
0.100566
0.0887043
0.0753326
0.0607002
0.0450519
0.0286299
0.0116768
-0.00556146
-0.0228313
-0.0398684
-0.0563947
-0.0721162
-0.0867219
-0.099885
-0.111266
-0.120518
-0.127297
-0.131269
-0.132132
-0.129624
-0.12355
-0.113799
-0.100359
-0.0833365
-0.0629665
-0.0396126
-0.0137956
0.0159968
0.045017
0.0705656
0.0923265
0.110139
0.123962
0.133852
0.139954
0.142472
0.141656
0.137788
0.13116
0.122072
0.11082
0.0976905
0.0829622
0.0669019
0.0497681
0.031813
0.0132872
-0.00555633
-0.0244571
-0.0431425
-0.0613231
-0.0786893
-0.0949095
-0.109629
-0.122474
-0.133054
-0.140973
-0.145841
-0.147289
-0.144992
-0.138687
-0.128202
-0.113477
-0.0945832
-0.0717396
-0.0453161
-0.0158653
0.0181023
0.0507288
0.0792556
0.103369
0.122934
0.137949
0.148528
0.154873
0.157255
0.155985
0.151402
0.143853
0.133681
0.121219
0.106786
0.0906798
0.0731854
0.0545717
0.0350979
0.0150184
-0.00541153
-0.0259291
-0.046258
-0.0661022
-0.085141
-0.103025
-0.119375
-0.13378
-0.145807
-0.155004
-0.160914
-0.163096
-0.161143
-0.154715
-0.143562
-0.127557
-0.106727
-0.0812621
-0.0515355
-0.0181328
0.0203653
0.0568454
0.0885242
0.115091
0.136443
0.152632
0.163837
0.170335
0.172474
0.170641
0.165241
0.15668
0.145353
0.131633
0.115867
0.0983766
0.0794603
0.0593945
0.0384413
0.0168541
-0.00511485
-0.0272062
-0.0491458
-0.0706368
-0.0913525
-0.110931
-0.128969
-0.145026
-0.158621
-0.169241
-0.17636
-0.179449
-0.178009
-0.171599
-0.159876
-0.142628
-0.119814
-0.0915877
-0.0583158
-0.0206182
0.0227989
0.0633952
0.098402
0.127513
0.150667
0.16798
0.179717
0.186247
0.188009
0.18548
0.179144
0.169475
0.15692
0.141896
0.124781
0.105917
0.0856131
0.0641493
0.0417853
0.0187682
-0.00465902
-0.028247
-0.0517306
-0.0748191
-0.0971865
-0.118464
-0.138232
-0.156019
-0.171299
-0.183498
-0.192009
-0.196207
-0.195483
-0.189278
-0.177126
-0.158707
-0.13389
-0.102774
-0.0657078
-0.0233446
0.0254198
0.0704137
0.108926
0.140657
0.165597
0.183951
0.196086
0.202487
0.203706
0.200323
0.192913
0.182027
0.168172
0.151807
0.133342
0.113136
0.0915046
0.0687272
0.0450552
0.0207226
-0.00404338
-0.029011
-0.0539319
-0.0785296
-0.102487
-0.125436
-0.146948
-0.166525
-0.1836
-0.197537
-0.207642
-0.213183
-0.213421
-0.207654
-0.195268
-0.1758
-0.149001
-0.114884
-0.0737687
-0.026339
0.0282494
0.077946
0.120142
0.154547
0.181223
0.200485
0.212835
0.218899
0.219366
0.21494
0.2063
0.194081
0.178854
0.161124
0.141326
0.119835
0.0969677
0.0729963
0.0481577
0.0226659
-0.00327566
-0.0294606
-0.0556661
-0.0816387
-0.10708
-0.131632
-0.154866
-0.176268
-0.195233
-0.211065
-0.22298
-0.230128
-0.231622
-0.226588
-0.214228
-0.193896
-0.165182
-0.127984
-0.0825641
-0.029633
0.031316
0.0860504
0.132107
0.169211
0.19752
0.217496
0.229814
0.235276
0.234737
0.229046
0.219001
0.205329
0.188665
0.16956
0.148472
0.125783
0.101807
0.0768013
0.0509808
0.0245318
-0.00237367
-0.0295632
-0.0568484
-0.0840092
-0.110776
-0.136814
-0.161704
-0.184927
-0.205851
-0.223724
-0.237674
-0.246722
-0.249816
-0.245879
-0.233886
-0.212957
-0.182466
-0.142146
-0.0921695
-0.0332646
0.0346571
0.0948032
0.144892
0.184678
0.21445
0.234868
0.246827
0.251354
0.249502
0.24229
0.230648
0.2154
0.197249
0.176781
0.154476
0.130716
0.1058
0.0799641
0.0533936
0.0262392
-0.00136657
-0.0292935
-0.0573972
-0.0855005
-0.113375
-0.140721
-0.167144
-0.192135
-0.215048
-0.235087
-0.251295
-0.262562
-0.267653
-0.265254
-0.254065
-0.232907
-0.200869
-0.157446
-0.102674
-0.0372801
0.0383236
0.104305
0.158589
0.200977
0.23195
0.252432
0.263611
0.266789
0.263262
0.25424
0.240799
0.223861
0.204193
0.182412
0.159003
0.13434
0.1087
0.0822876
0.0552492
0.027693
-0.000295623
-0.0286365
-0.0572372
-0.0859744
-0.114672
-0.14308
-0.170846
-0.197486
-0.222363
-0.244651
-0.263323
-0.277141
-0.284673
-0.284341
-0.274508
-0.253621
-0.220385
-0.173967
-0.114185
-0.0417377
0.0423855
0.114689
0.173308
0.21813
0.249915
0.269953
0.279811
0.281139
0.275516
0.264371
0.248931
0.230214
0.209037
0.186034
0.161686
0.136342
0.110247
0.0835623
0.0563898
0.028787
0.000786155
-0.027589
-0.0563056
-0.0853024
-0.114468
-0.143615
-0.17245
-0.200541
-0.227279
-0.251837
-0.27314
-0.289836
-0.300293
-0.302641
-0.294851
-0.274897
-0.240978
-0.191795
-0.126834
-0.0467126
0.0469403
0.126133
0.189186
0.236142
0.268178
0.287093
0.294952
0.293833
0.285647
0.272057
0.25444
0.233896
0.211272
0.187203
0.162142
0.1364
0.110174
0.0835766
0.0566541
0.029409
0.00181572
-0.0261625
-0.0545571
-0.0833756
-0.11258
-0.14206
-0.171601
-0.200845
-0.229242
-0.256
-0.280029
-0.299892
-0.313776
-0.319499
-0.314585
-0.296426
-0.262556
-0.211015
-0.140785
-0.0523046
0.0521263
0.138874
0.206379
0.254973
0.286466
0.303366
0.308392
0.304139
0.292893
0.276557
0.256638
0.234291
0.210366
0.185465
0.159993
0.134203
0.108233
0.0821328
0.0558903
0.0294488
0.00272354
-0.0243838
-0.0519705
-0.080116
-0.108862
-0.138186
-0.16797
-0.197953
-0.227683
-0.256442
-0.283178
-0.306418
-0.324205
-0.334056
-0.333003
-0.317741
-0.284937
-0.231707
-0.156247
-0.0586512
0.0581442
0.15323
0.225055
0.274497
0.304333
0.318071
0.319265
0.311125
0.296336
0.277018
0.254771
0.230757
0.205785
0.180389
0.154897
0.129484
0.104213
0.0790674
0.0539713
0.0288093
0.0034393
-0.0222955
-0.0485552
-0.0754895
-0.103221
-0.131823
-0.161284
-0.191468
-0.222053
-0.252449
-0.281705
-0.308387
-0.330465
-0.345204
-0.349134
-0.338143
-0.307795
-0.253916
-0.173487
-0.0659481
0.065292
0.169617
0.24536
0.294415
0.321061
0.330193
0.326416
0.313627
0.294894
0.272497
0.248056
0.222671
0.19705
0.171616
0.146591
0.122052
0.0979775
0.0742777
0.0508155
0.0274205
0.00389976
-0.0199544
-0.0443568
-0.0695203
-0.0956436
-0.122893
-0.151374
-0.181091
-0.211884
-0.243347
-0.274705
-0.304666
-0.331238
-0.351542
-0.361653
-0.35659
-0.33056
-0.277608
-0.192848
-0.0744843
0.0740263
0.18857
0.267331
0.314108
0.3355
0.338284
0.328326
0.310226
0.287346
0.262012
0.235746
0.209494
0.183797
0.15892
0.134947
0.111844
0.0894989
0.0677522
0.04641
0.0252563
0.00405859
-0.017429
-0.0394624
-0.062304
-0.0862161
-0.111449
-0.138221
-0.166683
-0.196865
-0.228586
-0.261335
-0.294079
-0.32503
-0.351338
-0.368783
-0.371544
-0.352248
-0.302567
-0.214748
-0.0847031
0.0850678
0.210736
0.290722
0.332379
0.345831
0.340311
0.323064
0.299277
0.272414
0.244646
0.217245
0.190891
0.165883
0.142289
0.120037
0.0989747
0.0789044
0.0596035
0.040835
0.0223516
0.00389711
-0.0147951
-0.0340035
-0.0540204
-0.0751513
-0.0977115
-0.122015
-0.14835
-0.176941
-0.207867
-0.240948
-0.275541
-0.310258
-0.342552
-0.3682
-0.380755
-0.371197
-0.328181
-0.23966
-0.0973081
0.0995739
0.236766
0.314613
0.347018
0.349262
0.333523
0.308304
0.279037
0.248934
0.219738
0.192283
0.166872
0.143505
0.122029
0.102213
0.0837985
0.066516
0.0500991
0.0342861
0.0188178
0.00343428
-0.012131
-0.028157
-0.0449415
-0.0628065
-0.0821024
-0.103208
-0.126522
-0.152439
-0.1813
-0.213292
-0.248272
-0.285459
-0.322951
-0.356996
-0.381028
-0.384645
-0.353019
-0.267956
-0.11343
0.119368
0.266937
0.336671
0.354174
0.341723
0.314467
0.281552
0.247981
0.216196
0.187186
0.161171
0.137996
0.117349
0.0988639
0.0821796
0.066957
0.0528862
0.0396842
0.0270891
0.0148528
0.00273342
-0.00951372
-0.0221446
-0.0354361
-0.0496959
-0.065273
-0.0825674
-0.102037
-0.124197
-0.149601
-0.178785
-0.212145
-0.24967
-0.290459
-0.331854
-0.368056
-0.388169
-0.374062
-0.299455
-0.134826
0.147268
0.300135
0.351771
0.347543
0.317758
0.279361
0.240741
0.205427
0.174489
0.147878
0.125113
0.105594
0.088739
0.0740364
0.0610496
0.0494118
0.0388132
0.0289879
0.0197018
0.010741
0.00190225
-0.00701727
-0.0162295
-0.0259662
-0.0364905
-0.0481113
-0.0611992
-0.0762057
-0.0936826
-0.114298
-0.138838
-0.16816
-0.203047
-0.243839
-0.289617
-0.33657
-0.375086
-0.385382
-0.332316
-0.164156
0.187847
0.331407
0.349392
0.317295
0.270802
0.225027
0.185272
0.152425
0.125753
0.10413
0.0864789
0.0719045
0.059699
0.0493153
0.0403305
0.0324149
0.0253062
0.0187903
0.0126859
0.0068329
0.00108213
-0.00471313
-0.0107059
-0.017065
-0.0239856
-0.0317031
-0.040511
-0.0507846
-0.0630123
-0.0778371
-0.0961054
-0.118914
-0.14762
-0.183722
-0.228369
-0.280954
-0.335807
-0.375834
-0.360557
-0.205625
0.244812
0.345093
0.31026
0.250609
0.195525
0.151432
0.118047
0.093132
0.0744131
0.0601209
0.048987
0.0401247
0.0329154
0.0269232
0.0218352
0.017421
0.0135062
0.00995381
0.00665175
0.00350347
0.000420876
-0.00268181
-0.00589382
-0.00931418
-0.0130591
-0.0172721
-0.0221374
-0.0278998
-0.0348948
-0.0435932
-0.0546696
-0.0691048
-0.0883269
-0.114376
-0.149965
-0.19795
-0.259143
-0.326544
-0.367206
-0.261532
0.285005
0.299014
0.213904
0.145895
0.100366
0.0706159
0.0512218
0.0383416
0.029495
0.0231816
0.0185052
0.0149208
0.0120872
0.00978332
0.00786084
0.00621605
0.00477361
0.00347632
0.00227865
0.00114222
3.25786e-05
-0.00108352
-0.00224063
-0.00347725
-0.0048392
-0.00638406
-0.00818769
-0.0103544
-0.0130332
-0.0164457
-0.0209342
-0.0270486
-0.0357043
-0.0484652
-0.0680007
-0.0986351
-0.146669
-0.219416
-0.309648
-0.294945
0.146414
0.127365
0.0753776
0.0430495
0.025344
0.0156015
0.0101542
0.00700315
0.00507851
0.00382698
0.0029627
0.00233352
0.00185462
0.00147615
0.00116718
0.00090736
0.000682621
0.000482669
0.000299543
0.000126693
-4.1671e-05
-0.000211087
-0.000387311
-0.000576815
-0.000787411
-0.00102914
-0.00131562
-0.00166629
-0.00211034
-0.002694
-0.00349499
-0.00465204
-0.00642764
-0.00934104
-0.014436
-0.0237712
-0.0412976
-0.0742115
-0.127995
-0.148218
)
;

boundaryField
{
    movingWall
    {
        type            calculated;
        value           uniform 0;
    }
    fixedWalls
    {
        type            calculated;
        value           uniform 0;
    }
    frontAndBack
    {
        type            empty;
    }
}


// ************************************************************************* //
