/*--------------------------------*- C++ -*----------------------------------*\
| =========                 |                                                 |
| \\      /  F ield         | OpenFOAM: The Open Source CFD Toolbox           |
|  \\    /   O peration     | Version:  2312                                  |
|   \\  /    A nd           | Website:  www.openfoam.com                      |
|    \\/     M anipulation  |                                                 |
\*---------------------------------------------------------------------------*/
FoamFile
{
    version     2.0;
    format      ascii;
    arch        "LSB;label=32;scalar=64";
    class       volScalarField;
    location    "0.5";
    object      Ux;
}
// * * * * * * * * * * * * * * * * * * * * * * * * * * * * * * * * * * * * * //

dimensions      [0 1 -1 0 0 0 0];

internalField   nonuniform List<scalar> 
1600
(
0.000174362
0.000171096
-0.000259209
-0.000380583
-0.00182748
-0.00213485
-0.00450918
-0.00495046
-0.00789309
-0.00840123
-0.0115315
-0.0120428
-0.0150109
-0.0154704
-0.0179816
-0.0183453
-0.02017
-0.0204053
-0.0213823
-0.0214682
-0.0215077
-0.0214353
-0.0205231
-0.0202963
-0.0184986
-0.0181355
-0.0156041
-0.0151371
-0.012111
-0.0115874
-0.00838632
-0.00786652
-0.00487159
-0.00442453
-0.00203908
-0.00173385
-0.000314335
-0.000199418
0.000199424
0.000199749
0.000149557
0.000148808
-0.00036499
-0.000476871
-0.00212983
-0.00241316
-0.00507313
-0.00547991
-0.00875348
-0.00922187
-0.0126946
-0.0131659
-0.0164548
-0.0168784
-0.0196591
-0.0199944
-0.022014
-0.022231
-0.0233117
-0.0233909
-0.0234337
-0.023367
-0.0223565
-0.0221475
-0.0201572
-0.0198224
-0.0170199
-0.0165894
-0.0132376
-0.012755
-0.00920518
-0.00872604
-0.0053953
-0.0049832
-0.00231084
-0.00202948
-0.000406536
-0.000300607
0.000177725
0.000175881
-0.000278615
-0.000382878
-0.00171147
-0.00210096
-0.00536023
-0.00606128
-0.0108642
-0.0117797
-0.0174931
-0.0185115
-0.0244865
-0.0254976
-0.0311206
-0.0320241
-0.036763
-0.0374757
-0.0409093
-0.0413685
-0.0431996
-0.043365
-0.0434296
-0.0432849
-0.0415601
-0.0411142
-0.0377266
-0.037015
-0.0322463
-0.0313316
-0.0256166
-0.0245867
-0.0184963
-0.0174596
-0.0116572
-0.0107318
-0.00590465
-0.00520593
-0.00198729
-0.00160783
-0.000332816
-0.00023436
-0.000344973
-0.000444046
-0.00197869
-0.00236818
-0.00601306
-0.00671411
-0.0120094
-0.0129249
-0.0191847
-0.020203
-0.0267306
-0.0277416
-0.0338755
-0.034779
-0.0399439
-0.0406566
-0.0443968
-0.044856
-0.0468497
-0.0470152
-0.0470849
-0.0469402
-0.0450614
-0.0446156
-0.0409257
-0.0402142
-0.0350183
-0.0341036
-0.0278716
-0.0268417
-0.0201901
-0.0191533
-0.0127967
-0.0118714
-0.00654812
-0.0058494
-0.00224704
-0.00186759
-0.000391065
-0.000297552
-0.000924208
-0.00114223
-0.00375012
-0.00444792
-0.0100383
-0.0111675
-0.0188829
-0.0202823
-0.0291546
-0.0306688
-0.039782
-0.0412632
-0.0497543
-0.0510667
-0.0581809
-0.0592109
-0.0643474
-0.065009
-0.0677434
-0.0679814
-0.0680795
-0.0678716
-0.0653018
-0.0646603
-0.0596037
-0.0585774
-0.0514346
-0.0501087
-0.0414952
-0.039989
-0.0307101
-0.0291697
-0.0201574
-0.0187417
-0.0109709
-0.00984165
-0.0042916
-0.00360585
-0.00106914
-0.000858744
-0.000996401
-0.00120877
-0.00403311
-0.00473092
-0.0107048
-0.011834
-0.0200064
-0.0214059
-0.0307564
-0.0322706
-0.0418475
-0.0433287
-0.0522362
-0.0535487
-0.0610038
-0.0620338
-0.0674135
-0.0680751
-0.070939
-0.071177
-0.0712823
-0.0710743
-0.0683876
-0.0677461
-0.0624547
-0.0614284
-0.0539469
-0.052621
-0.0435869
-0.0420807
-0.032329
-0.0307886
-0.0212873
-0.0198716
-0.0116354
-0.0105062
-0.00456987
-0.00388412
-0.0011332
-0.000928243
-0.00154757
-0.00187171
-0.00575775
-0.00675473
-0.0146259
-0.0161675
-0.0266239
-0.0284747
-0.040196
-0.0421564
-0.0539991
-0.0558904
-0.0668086
-0.0684696
-0.0775575
-0.0788543
-0.0853952
-0.0862271
-0.0897153
-0.0900174
-0.0901724
-0.089918
-0.0866967
-0.0858992
-0.0795097
-0.0782246
-0.0691346
-0.0674605
-0.0563977
-0.0544744
-0.0424038
-0.0404053
-0.0284632
-0.0265835
-0.0160012
-0.0144509
-0.00658449
-0.00559734
-0.00178234
-0.00146644
-0.00161124
-0.0019304
-0.00602303
-0.00702001
-0.0152651
-0.0168067
-0.027702
-0.0295528
-0.0417205
-0.0436808
-0.0559438
-0.057835
-0.0691213
-0.0707823
-0.0801666
-0.0814634
-0.0882147
-0.0890466
-0.0926497
-0.0929518
-0.09312
-0.0928656
-0.0895537
-0.0887561
-0.0821738
-0.0808887
-0.0715102
-0.0698361
-0.0584021
-0.0564788
-0.0439752
-0.0419767
-0.0295699
-0.0276901
-0.0166512
-0.0151009
-0.00684959
-0.00586244
-0.00183919
-0.00152812
-0.00211313
-0.00253731
-0.00764834
-0.00893331
-0.0190236
-0.0209657
-0.0340681
-0.0363528
-0.0507688
-0.0531495
-0.0675125
-0.069782
-0.0828931
-0.0848701
-0.095716
-0.0972528
-0.105043
-0.10603
-0.110211
-0.110577
-0.110835
-0.11055
-0.106825
-0.1059
-0.0984025
-0.096895
-0.0861162
-0.0841306
-0.0708613
-0.068551
-0.0538716
-0.0514335
-0.036661
-0.0343238
-0.0209562
-0.0189854
-0.00880314
-0.00751779
-0.00244593
-0.00202803
-0.00217077
-0.00259045
-0.00789987
-0.00918485
-0.0196414
-0.0215835
-0.0351145
-0.0373991
-0.0522442
-0.0546249
-0.0693833
-0.0716529
-0.0851037
-0.0870806
-0.0981966
-0.0997334
-0.107716
-0.108703
-0.112993
-0.113359
-0.11364
-0.113355
-0.109563
-0.108638
-0.10098
-0.0994724
-0.0884404
-0.0864549
-0.0728449
-0.0705346
-0.0554419
-0.0530038
-0.0377727
-0.0354356
-0.0216071
-0.0196363
-0.00906319
-0.00777783
-0.00249881
-0.0020854
-0.00264857
-0.00317025
-0.00947575
-0.0110434
-0.0233183
-0.0256546
-0.0413499
-0.0440583
-0.061076
-0.0638608
-0.0806096
-0.083236
-0.0983847
-0.100655
-0.113116
-0.114876
-0.12382
-0.124954
-0.129805
-0.130239
-0.130665
-0.130366
-0.126282
-0.125257
-0.116846
-0.115148
-0.102888
-0.10062
-0.0853192
-0.082642
-0.0654582
-0.0625879
-0.0450046
-0.0422054
-0.0260065
-0.0236045
-0.0110466
-0.00945545
-0.00310436
-0.0025825
-0.00270466
-0.00322196
-0.0097244
-0.0112921
-0.0239318
-0.0262681
-0.0423864
-0.0450948
-0.0625283
-0.0653132
-0.0824367
-0.0850632
-0.100527
-0.102798
-0.115506
-0.117265
-0.126387
-0.127521
-0.132479
-0.132913
-0.133373
-0.133074
-0.128948
-0.127923
-0.119386
-0.117687
-0.10521
-0.102943
-0.0873302
-0.084653
-0.0670722
-0.0642018
-0.0461597
-0.0433605
-0.0266869
-0.0242849
-0.0113179
-0.00972684
-0.00315883
-0.00264159
-0.00318774
-0.00380828
-0.0113165
-0.0131692
-0.0276326
-0.0303625
-0.0486186
-0.0517422
-0.0712727
-0.0744441
-0.0934375
-0.0963968
-0.113416
-0.115955
-0.129875
-0.131837
-0.141832
-0.143103
-0.148604
-0.149112
-0.149782
-0.149489
-0.145212
-0.144118
-0.135022
-0.133171
-0.119674
-0.11716
-0.100032
-0.0970134
-0.0774441
-0.0741501
-0.0537622
-0.0504915
-0.0313677
-0.0285131
-0.013446
-0.0115286
-0.00381227
-0.0031783
-0.0032465
-0.00386244
-0.0115736
-0.0134262
-0.0282597
-0.0309895
-0.0496642
-0.0527878
-0.0727165
-0.0758878
-0.0952267
-0.0981861
-0.115485
-0.118025
-0.13216
-0.134121
-0.144271
-0.145542
-0.151145
-0.151652
-0.15237
-0.152076
-0.147788
-0.146694
-0.137516
-0.135665
-0.122
-0.119485
-0.10209
-0.0990713
-0.0791322
-0.0758382
-0.0549957
-0.051725
-0.0321078
-0.0292532
-0.0137464
-0.011829
-0.00387394
-0.0032452
-0.00376259
-0.00448706
-0.0132456
-0.0153923
-0.0320807
-0.0352056
-0.0559828
-0.0595078
-0.0814106
-0.0849391
-0.105953
-0.109205
-0.127831
-0.130597
-0.145731
-0.14786
-0.158732
-0.160122
-0.166214
-0.166796
-0.167786
-0.167523
-0.16326
-0.162141
-0.15267
-0.150721
-0.136341
-0.133637
-0.11501
-0.111695
-0.0899628
-0.086268
-0.0631396
-0.0593924
-0.0372424
-0.0339073
-0.0161339
-0.0138575
-0.00462466
-0.00386429
-0.00382805
-0.00454741
-0.0135221
-0.0156688
-0.032737
-0.0358619
-0.0570486
-0.0605736
-0.0828421
-0.0863706
-0.107679
-0.110932
-0.129779
-0.132545
-0.147839
-0.149968
-0.160955
-0.162345
-0.168521
-0.169103
-0.170152
-0.169888
-0.165653
-0.164534
-0.155043
-0.153093
-0.13862
-0.135916
-0.117093
-0.113778
-0.0917302
-0.0880354
-0.0644746
-0.0607274
-0.0380692
-0.0347342
-0.016481
-0.0142046
-0.00469932
-0.00394528
-0.00440587
-0.00524293
-0.0153366
-0.0177921
-0.0367583
-0.0402775
-0.0634866
-0.0673853
-0.0914006
-0.0952326
-0.117875
-0.121351
-0.141136
-0.144056
-0.159986
-0.162222
-0.173659
-0.175129
-0.181669
-0.182319
-0.183685
-0.183478
-0.179492
-0.178406
-0.168992
-0.167027
-0.152302
-0.149499
-0.129914
-0.126384
-0.10292
-0.098878
-0.0732246
-0.0690133
-0.0437925
-0.0399501
-0.0192381
-0.0165601
-0.00559882
-0.00469183
-0.00448287
-0.00531391
-0.0156446
-0.0181001
-0.0374581
-0.0409773
-0.0645738
-0.0684725
-0.0927935
-0.0966256
-0.119476
-0.122952
-0.142859
-0.14578
-0.161778
-0.164014
-0.175497
-0.176967
-0.183555
-0.184205
-0.185636
-0.185429
-0.181518
-0.180431
-0.171083
-0.169118
-0.154411
-0.151607
-0.131944
-0.128414
-0.104735
-0.100693
-0.0746654
-0.0704542
-0.044728
-0.0408855
-0.0196503
-0.0169723
-0.00569324
-0.00479426
-0.00516042
-0.0061229
-0.017677
-0.0204605
-0.0417524
-0.0456565
-0.0710996
-0.0753178
-0.100976
-0.105018
-0.128628
-0.132211
-0.152421
-0.155378
-0.171421
-0.173664
-0.185146
-0.18663
-0.193335
-0.19403
-0.195785
-0.195661
-0.192266
-0.191287
-0.182523
-0.180656
-0.166377
-0.163612
-0.143932
-0.140324
-0.115894
-0.11161
-0.0839275
-0.0793012
-0.0511214
-0.0467577
-0.0228881
-0.0197599
-0.00680269
-0.00572288
-0.00525649
-0.00621146
-0.0180333
-0.0208168
-0.0425106
-0.0464147
-0.0721981
-0.0764163
-0.102275
-0.106317
-0.12999
-0.133574
-0.153751
-0.156708
-0.172676
-0.174919
-0.186336
-0.18782
-0.194511
-0.195206
-0.197019
-0.196896
-0.193631
-0.192653
-0.184066
-0.182199
-0.168095
-0.16533
-0.145753
-0.142144
-0.117669
-0.113385
-0.0854502
-0.0808239
-0.0521802
-0.0478165
-0.0233869
-0.0202587
-0.00692633
-0.00585702
-0.0060963
-0.00720302
-0.0203954
-0.0235305
-0.0471594
-0.0514207
-0.0787011
-0.0831403
-0.109638
-0.113734
-0.137247
-0.140754
-0.160251
-0.163064
-0.178182
-0.180278
-0.191001
-0.192392
-0.198795
-0.199489
-0.201561
-0.201543
-0.199092
-0.198315
-0.190962
-0.189349
-0.176613
-0.174087
-0.155601
-0.152127
-0.12799
-0.123649
-0.0948926
-0.0899651
-0.059248
-0.0543816
-0.0272284
-0.0236012
-0.0083306
-0.00704518
-0.00622508
-0.00732172
-0.0208274
-0.0239625
-0.0479946
-0.0522559
-0.0797844
-0.0842237
-0.110745
-0.114841
-0.138193
-0.1417
-0.160931
-0.163744
-0.178577
-0.180673
-0.191168
-0.192559
-0.19885
-0.199544
-0.201652
-0.201634
-0.199373
-0.198596
-0.191561
-0.189948
-0.177599
-0.175072
-0.156948
-0.153475
-0.129559
-0.125219
-0.0964289
-0.0915014
-0.0604338
-0.0555675
-0.0278421
-0.0242149
-0.00849864
-0.00722748
-0.00734021
-0.00861935
-0.0237027
-0.0272161
-0.0530958
-0.0576513
-0.0860254
-0.0905154
-0.116533
-0.120438
-0.142224
-0.14538
-0.1625
-0.164906
-0.177617
-0.179348
-0.188168
-0.189312
-0.194712
-0.195331
-0.197529
-0.197631
-0.196485
-0.196015
-0.190993
-0.189831
-0.180072
-0.178056
-0.162571
-0.159546
-0.137622
-0.133526
-0.105346
-0.100337
-0.0680498
-0.0627635
-0.032434
-0.0282691
-0.0103293
-0.00879785
-0.00752753
-0.00879201
-0.0242561
-0.0277695
-0.0540295
-0.0585849
-0.0870359
-0.091526
-0.117282
-0.121187
-0.142477
-0.145633
-0.162156
-0.164563
-0.176701
-0.178432
-0.186806
-0.18795
-0.1931
-0.193719
-0.195908
-0.19601
-0.195109
-0.194638
-0.190095
-0.188932
-0.179823
-0.177807
-0.163033
-0.160009
-0.138699
-0.134604
-0.106754
-0.101744
-0.069344
-0.0640577
-0.0332022
-0.0290373
-0.0105679
-0.00905671
-0.00912387
-0.0106179
-0.0279401
-0.0318557
-0.0596638
-0.0643822
-0.0925026
-0.0967575
-0.120202
-0.123541
-0.141217
-0.143631
-0.15608
-0.157724
-0.166068
-0.167145
-0.172576
-0.173271
-0.17673
-0.177165
-0.179153
-0.179371
-0.179847
-0.179792
-0.178117
-0.177632
-0.172576
-0.171411
-0.161286
-0.159139
-0.142171
-0.138775
-0.113815
-0.109104
-0.0771233
-0.0716177
-0.0387121
-0.0340023
-0.0130376
-0.0112117
-0.00941802
-0.010889
-0.0286883
-0.0326039
-0.0607062
-0.0654245
-0.0933104
-0.0975653
-0.120302
-0.123641
-0.140345
-0.142759
-0.154175
-0.155819
-0.16323
-0.164308
-0.169024
-0.169718
-0.172758
-0.173193
-0.175103
-0.175321
-0.176082
-0.176027
-0.174993
-0.174508
-0.170398
-0.169232
-0.160251
-0.158104
-0.142287
-0.138892
-0.114821
-0.11011
-0.0784551
-0.0729495
-0.0396874
-0.0349777
-0.0133922
-0.0115964
-0.0118515
-0.0136216
-0.033602
-0.0379174
-0.0667671
-0.0713821
-0.0968447
-0.100393
-0.118046
-0.120271
-0.130534
-0.131684
-0.136528
-0.136968
-0.138588
-0.138672
-0.138989
-0.138998
-0.139417
-0.139538
-0.140844
-0.141154
-0.143452
-0.143907
-0.146546
-0.14697
-0.148468
-0.148541
-0.146576
-0.145846
-0.137453
-0.135399
-0.117602
-0.113808
-0.0854481
-0.0801317
-0.0462294
-0.0410471
-0.0168277
-0.0146545
-0.0123365
-0.0140687
-0.0346447
-0.0389601
-0.0678621
-0.0724771
-0.0971478
-0.100696
-0.11697
-0.119195
-0.127852
-0.129002
-0.132287
-0.132728
-0.133016
-0.1331
-0.13242
-0.132429
-0.13225
-0.132371
-0.133515
-0.133824
-0.136421
-0.136876
-0.140288
-0.140712
-0.143441
-0.143514
-0.143163
-0.142433
-0.135857
-0.133803
-0.117694
-0.1139
-0.0866184
-0.0813019
-0.0474611
-0.0422788
-0.0173709
-0.0152437
-0.0161327
-0.0182544
-0.0411769
-0.0457911
-0.0734959
-0.0774747
-0.0960746
-0.098159
-0.105292
-0.105646
-0.104259
-0.103508
-0.097403
-0.0961573
-0.0886231
-0.0873726
-0.080918
-0.0800173
-0.0763548
-0.076029
-0.0761318
-0.0764859
-0.0806149
-0.0816317
-0.0892668
-0.0907856
-0.100454
-0.102134
-0.111184
-0.112468
-0.116922
-0.117032
-0.111819
-0.109874
-0.0905793
-0.0862135
-0.0547586
-0.0493602
-0.022156
-0.019597
-0.0169267
-0.0189863
-0.0425835
-0.0471978
-0.0743541
-0.0783329
-0.0951769
-0.0972613
-0.102069
-0.102423
-0.0986747
-0.097924
-0.0897248
-0.0884791
-0.0792634
-0.0780129
-0.0703433
-0.0694426
-0.0650471
-0.0647213
-0.0645832
-0.0649374
-0.06934
-0.0703568
-0.0788182
-0.080337
-0.0914253
-0.0931054
-0.104176
-0.10546
-0.112438
-0.112547
-0.110047
-0.108102
-0.0910736
-0.0867078
-0.056204
-0.0508056
-0.0229708
-0.0204809
-0.022508
-0.0250309
-0.050288
-0.0548126
-0.076378
-0.0786886
-0.0834042
-0.0828716
-0.0731212
-0.0706597
-0.0529336
-0.0496287
-0.0295447
-0.0262102
-0.00774655
-0.00493356
0.00927943
0.0112183
0.0195388
0.0203919
0.0218842
0.0215421
0.0158339
0.014279
0.00159728
-0.00107333
-0.0196634
-0.0231775
-0.0453189
-0.0491328
-0.0705467
-0.0737275
-0.0876437
-0.0888283
-0.0868027
-0.0847037
-0.0624715
-0.0575174
-0.0290675
-0.0261645
-0.023669
-0.0261011
-0.0518496
-0.0563741
-0.0760337
-0.0783443
-0.0797595
-0.0792269
-0.0659933
-0.0635317
-0.0427417
-0.0394368
-0.0169092
-0.0135747
0.006701
0.00951399
0.0249682
0.026907
0.0359648
0.0368178
0.0385815
0.0382393
0.0323288
0.0307738
0.0173548
0.0146842
-0.00529063
-0.00880473
-0.0331157
-0.0369296
-0.0613839
-0.0645648
-0.0822731
-0.0834578
-0.0853749
-0.0832758
-0.0637019
-0.0587478
-0.030122
-0.0273085
-0.0298533
-0.0326628
-0.0566978
-0.0600188
-0.0649985
-0.063771
-0.0440114
-0.039312
-0.00565485
0.000538503
0.0381073
0.0443656
0.0795329
0.0850342
0.114242
0.118546
0.139895
0.142774
0.155265
0.1566
0.159664
0.159379
0.152646
0.150689
0.13397
0.130329
0.103839
0.0986049
0.0635322
0.0570379
0.0165813
0.00963917
-0.0294399
-0.0352303
-0.0612799
-0.0635151
-0.0625997
-0.0595642
-0.0351613
-0.0322006
-0.0308799
-0.0336092
-0.0571193
-0.0604402
-0.0607786
-0.0595511
-0.034397
-0.0296977
0.00840239
0.0145957
0.0554186
0.0616769
0.0990772
0.104579
0.135241
0.139544
0.161792
0.164672
0.177669
0.179004
0.182273
0.181988
0.175173
0.173216
0.156059
0.152418
0.124968
0.119734
0.0829005
0.0764062
0.0330303
0.0260881
-0.0174102
-0.0232006
-0.0551159
-0.0573511
-0.0620025
-0.058967
-0.0357734
-0.0328646
-0.0278049
-0.0303888
-0.0425109
-0.0419764
-0.0119872
-0.00426197
0.0522474
0.0626174
0.123873
0.134032
0.189934
0.198727
0.245311
0.252333
0.288269
0.293436
0.318557
0.321901
0.336384
0.337948
0.341868
0.341648
0.334776
0.332702
0.314445
0.310377
0.279872
0.273637
0.230145
0.221652
0.165522
0.155003
0.08953
0.0780604
0.0136468
0.00431335
-0.0342569
-0.0360095
-0.0277557
-0.0254721
-0.0249596
-0.027766
-0.0365769
-0.0360424
0.00274405
0.0104693
0.0739239
0.0842938
0.149532
0.15969
0.217618
0.22641
0.273892
0.280914
0.317145
0.322311
0.347461
0.350805
0.365254
0.366818
0.370751
0.370531
0.363751
0.361677
0.343546
0.339477
0.30898
0.302745
0.258825
0.250332
0.192761
0.182241
0.11332
0.10185
0.0306458
0.0213124
-0.0265425
-0.0282952
-0.0241311
-0.0215399
0.041663
0.0399517
0.059068
0.0681525
0.149461
0.166431
0.260249
0.275875
0.354471
0.366671
0.427707
0.436889
0.482826
0.48952
0.522627
0.527253
0.549364
0.552238
0.564645
0.565958
0.569308
0.569127
0.563394
0.561655
0.546086
0.542579
0.515595
0.50994
0.469083
0.460719
0.402704
0.390872
0.311874
0.295844
0.196743
0.178432
0.0876716
0.0769222
0.0505423
0.0513373
0.0696003
0.0657039
0.0907719
0.0998564
0.189644
0.206614
0.303523
0.31915
0.397216
0.409416
0.468638
0.477819
0.521745
0.528439
0.559781
0.564407
0.585191
0.588065
0.599663
0.600976
0.604075
0.603894
0.598494
0.596755
0.582119
0.578612
0.553151
0.547496
0.508651
0.500287
0.444418
0.432586
0.35482
0.338791
0.237465
0.219155
0.120304
0.109554
0.0769222
0.0799556
0.239553
0.253605
0.319419
0.339584
0.453039
0.474799
0.574811
0.589395
0.656972
0.665784
0.710452
0.716052
0.746375
0.750036
0.770437
0.772776
0.78574
0.787102
0.794075
0.794645
0.796324
0.796168
0.792631
0.791719
0.782411
0.780593
0.764145
0.7611
0.73493
0.73004
0.689359
0.681305
0.616568
0.602515
0.501657
0.4795
0.359633
0.338113
0.265529
0.250725
0.264843
0.277789
0.344843
0.366719
0.47968
0.503286
0.601144
0.616966
0.681799
0.691359
0.733369
0.739444
0.767556
0.771528
0.790255
0.792792
0.804602
0.806079
0.812383
0.813001
0.814477
0.814308
0.811038
0.810048
0.801511
0.799539
0.784425
0.781122
0.756919
0.751614
0.713526
0.704789
0.64299
0.627745
0.529508
0.505472
0.386654
0.363309
0.289867
0.276105
)
;

boundaryField
{
    movingWall
    {
        type            calculated;
        value           uniform 1;
    }
    fixedWalls
    {
        type            calculated;
        value           uniform 0;
    }
    frontAndBack
    {
        type            empty;
    }
}


// ************************************************************************* //
