/*--------------------------------*- C++ -*----------------------------------*\
| =========                 |                                                 |
| \\      /  F ield         | OpenFOAM: The Open Source CFD Toolbox           |
|  \\    /   O peration     | Version:  2312                                  |
|   \\  /    A nd           | Website:  www.openfoam.com                      |
|    \\/     M anipulation  |                                                 |
\*---------------------------------------------------------------------------*/
FoamFile
{
    version     2.0;
    format      ascii;
    arch        "LSB;label=32;scalar=64";
    class       volScalarField;
    location    "0.5";
    object      Uy;
}
// * * * * * * * * * * * * * * * * * * * * * * * * * * * * * * * * * * * * * //

dimensions      [0 1 -1 0 0 0 0];

internalField   nonuniform List<scalar> 
1600
(
-0.000171438
-0.000143577
0.000305821
0.000374981
0.000930723
0.000996363
0.00141068
0.0014515
0.00166292
0.00167791
0.00169479
0.00168734
0.00153758
0.00151202
0.00122941
0.00119011
0.000809383
0.000760517
0.000316539
0.000262239
-0.000208908
-0.000264312
-0.000723993
-0.000775767
-0.00118209
-0.00122502
-0.00153336
-0.00156185
-0.00172715
-0.00173562
-0.00171731
-0.00170093
-0.00147156
-0.00142764
-0.000988422
-0.000919879
-0.000349103
-0.000279626
0.000165305
0.00019324
-0.000171236
-0.000145892
0.000410556
0.000474307
0.00114087
0.00120137
0.00169416
0.00173179
0.00198208
0.00199591
0.00201279
0.00200592
0.00182185
0.00179828
0.00145337
0.00141714
0.000953173
0.000908129
0.000367412
0.000317359
-0.00025618
-0.000307251
-0.000866598
-0.000914323
-0.00140866
-0.00144823
-0.0018237
-0.00184996
-0.00205251
-0.00206031
-0.00204174
-0.00202664
-0.00175497
-0.00171448
-0.00119187
-0.00112869
-0.00044375
-0.000379707
0.00017088
0.000196612
0.000238566
0.000348561
0.00172035
0.00198299
0.00360865
0.00384379
0.00504692
0.00519437
0.00580058
0.00585089
0.00586098
0.00582134
0.00530329
0.00518762
0.00423842
0.00406335
0.00279184
0.00257504
0.00109612
0.000856066
-0.000709075
-0.000952811
-0.00247505
-0.00270155
-0.0040437
-0.00423084
-0.00525113
-0.00537653
-0.00593775
-0.00598074
-0.00596723
-0.00591231
-0.00525712
-0.00509929
-0.00382699
-0.00358175
-0.00191151
-0.00164677
-0.000283473
-0.000175226
0.000352447
0.000453535
0.00211049
0.00237314
0.00427867
0.00451381
0.0059155
0.00606296
0.00676475
0.00681506
0.00681658
0.00677694
0.00615629
0.00604062
0.00491094
0.00473587
0.00322516
0.00300837
0.00125247
0.00101242
-0.000845116
-0.00108885
-0.00289519
-0.00312168
-0.0047147
-0.00490183
-0.00611446
-0.00623986
-0.00691105
-0.00695404
-0.0069488
-0.00689388
-0.00613508
-0.00597726
-0.00449441
-0.00424918
-0.00229027
-0.00202553
-0.000378211
-0.000278003
0.00178438
0.00209351
0.00538398
0.00601744
0.00965768
0.0101898
0.0128077
0.0131353
0.0144062
0.0145055
0.0144151
0.0142979
0.0129815
0.0126775
0.0103478
0.00989596
0.00680329
0.00624719
0.0026639
0.00205015
-0.00173366
-0.00235544
-0.00603158
-0.00660886
-0.00985355
-0.0103318
-0.0128161
-0.0131417
-0.0145545
-0.0146797
-0.0147677
-0.014659
-0.0132866
-0.0129365
-0.0101688
-0.00961354
-0.00586845
-0.00522824
-0.00194507
-0.00163907
0.00209404
0.00237895
0.00611754
0.006751
0.0107886
0.0113207
0.0142063
0.0145338
0.015922
0.0160213
0.0158979
0.0157806
0.014295
0.0139911
0.0113786
0.0109268
0.00746554
0.00690944
0.00290236
0.00228862
-0.00194139
-0.00256317
-0.00667315
-0.00725042
-0.0108803
-0.0113586
-0.0141431
-0.0144687
-0.0160625
-0.0161877
-0.0163101
-0.0162014
-0.0147017
-0.0143517
-0.0112995
-0.0107443
-0.00658761
-0.00594741
-0.0022151
-0.00193202
0.00462837
0.00522226
0.0113023
0.0124428
0.0187691
0.0196692
0.0240427
0.0245751
0.0265758
0.0267103
0.0263393
0.0260974
0.0235892
0.0230215
0.0187412
0.0179148
0.0122977
0.0112885
0.0048115
0.00370147
-0.00312594
-0.00424971
-0.0108873
-0.0119329
-0.0178153
-0.0186879
-0.0232436
-0.0238502
-0.0265407
-0.0267991
-0.0271858
-0.0270381
-0.0248785
-0.024309
-0.0196793
-0.0187381
-0.0122137
-0.0110577
-0.00496655
-0.00437584
0.00511936
0.00567485
0.0123578
0.0134983
0.0203148
0.0212149
0.0258943
0.0264267
0.0285417
0.0286763
0.0282366
0.0279947
0.0252553
0.0246877
0.0200421
0.0192158
0.0131324
0.0121233
0.00511494
0.0040049
-0.00338077
-0.00450454
-0.011687
-0.0127325
-0.0191042
-0.0199768
-0.024923
-0.0255296
-0.0284705
-0.0287289
-0.0291906
-0.0290428
-0.0267597
-0.0261902
-0.021234
-0.0202927
-0.0132568
-0.0121008
-0.00540061
-0.00484673
0.00867035
0.00963118
0.0193354
0.0211133
0.0307118
0.03204
0.0383932
0.0391409
0.0418326
0.0419776
0.0410931
0.040676
0.0365978
0.0356975
0.0289813
0.0276981
0.0189947
0.017441
0.00745859
0.00575524
-0.0047529
-0.00647781
-0.0167142
-0.0183255
-0.0274544
-0.0288124
-0.0359842
-0.0369506
-0.0413554
-0.041806
-0.0427667
-0.0426095
-0.039714
-0.0389138
-0.0321762
-0.0307829
-0.0208474
-0.0190375
-0.00926676
-0.00830583
0.00932677
0.0102363
0.0206986
0.0224765
0.032656
0.0339842
0.0406733
0.041421
0.0442145
0.0443594
0.0433642
0.0429471
0.0385759
0.0376756
0.0305191
0.0292359
0.0199825
0.0184288
0.00782534
0.00612199
-0.00503787
-0.00676277
-0.0176391
-0.0192505
-0.0289625
-0.0303205
-0.0379709
-0.0389373
-0.0436678
-0.0441183
-0.0452066
-0.0450494
-0.0420475
-0.0412473
-0.0341497
-0.0327564
-0.0222089
-0.020399
-0.00985368
-0.00894255
0.0138385
0.0152493
0.0294138
0.0319619
0.0454153
0.0472324
0.0557604
0.0567304
0.0600326
0.0601581
0.0584952
0.0578495
0.0518198
0.0505189
0.0409137
0.0390971
0.0268102
0.02463
0.0106149
0.00823216
-0.00650682
-0.00892231
-0.0233242
-0.0255929
-0.0385392
-0.0404734
-0.0508104
-0.0522212
-0.0588222
-0.0595339
-0.0614149
-0.0612884
-0.0577773
-0.0567413
-0.0476848
-0.0457716
-0.0317783
-0.0291693
-0.0148142
-0.0133934
0.014653
0.0160001
0.0310799
0.0336279
0.0477543
0.0495713
0.0584623
0.0594323
0.0628178
0.0629433
0.0611226
0.0604769
0.054091
0.0527901
0.0426735
0.0408568
0.0279446
0.0257643
0.0110499
0.00866709
-0.0068055
-0.00922098
-0.0243492
-0.0266179
-0.0402377
-0.0421719
-0.0530787
-0.0544895
-0.0615009
-0.0622125
-0.0642866
-0.0641601
-0.0605714
-0.0595354
-0.0500905
-0.0481772
-0.0334671
-0.0308581
-0.0155536
-0.0141955
0.0201122
0.0220569
0.0415236
0.0449747
0.0628614
0.0652255
0.0760959
0.0772898
0.081082
0.0811524
0.0784146
0.0774836
0.069114
0.0673461
0.0544247
0.0520046
0.0356925
0.0328141
0.0143131
0.0111768
-0.00826754
-0.0114524
-0.030528
-0.0335391
-0.0508486
-0.0534498
-0.0675192
-0.0694658
-0.0788048
-0.0798588
-0.0830918
-0.08305
-0.0791257
-0.0778595
-0.0663175
-0.0638189
-0.0451067
-0.0415468
-0.0216539
-0.0196779
0.0210862
0.0229548
0.0434952
0.0469463
0.0655948
0.067959
0.0792118
0.0804057
0.0842536
0.084324
0.0813748
0.0804438
0.0716536
0.0698856
0.0563865
0.0539664
0.0369642
0.0340857
0.0148213
0.0116849
-0.00856005
-0.0117449
-0.0316211
-0.0346322
-0.0526997
-0.0553009
-0.0700337
-0.0719803
-0.0818251
-0.082879
-0.0863874
-0.0863457
-0.0823904
-0.0811242
-0.0691775
-0.0666789
-0.0471453
-0.0435854
-0.0225572
-0.0206579
0.0275217
0.0300856
0.0557014
0.0601868
0.0830537
0.0860151
0.0993327
0.100741
0.104834
0.104804
0.100647
0.0993695
0.0882628
0.0859635
0.0693345
0.0662499
0.0455464
0.0419126
0.0185735
0.0146266
-0.00989112
-0.0139079
-0.0380767
-0.041904
-0.0640736
-0.0674291
-0.0858052
-0.0883852
-0.101071
-0.102564
-0.107695
-0.107813
-0.103806
-0.102334
-0.0882365
-0.0850971
-0.0610218
-0.0563538
-0.0299112
-0.0272774
0.0286646
0.0311392
0.0579889
0.0624743
0.0861833
0.0891446
0.102848
0.104257
0.108362
0.108332
0.1039
0.102622
0.0910285
0.0887292
0.0714635
0.068379
0.046936
0.0433022
0.0191563
0.0152094
-0.0101539
-0.0141707
-0.039195
-0.0430223
-0.066022
-0.0693776
-0.0885092
-0.0910893
-0.104387
-0.10588
-0.111391
-0.111509
-0.107546
-0.106074
-0.091579
-0.0884396
-0.0634462
-0.0587782
-0.0310013
-0.0284601
0.0361448
0.0394152
0.0720301
0.0776765
0.106001
0.109593
0.125344
0.126937
0.131025
0.130833
0.124837
0.123144
0.10889
0.105998
0.0853238
0.0815274
0.056177
0.0517523
0.0233722
0.0185836
-0.0112135
-0.0160994
-0.0456353
-0.0503321
-0.0777603
-0.0819472
-0.10518
-0.108494
-0.1252
-0.127246
-0.134969
-0.135351
-0.131789
-0.130169
-0.11362
-0.109806
-0.0797918
-0.0738561
-0.0397896
-0.0363865
0.0374739
0.0406404
0.074651
0.0802974
0.109526
0.113118
0.129231
0.130824
0.134856
0.134664
0.128313
0.126619
0.11181
0.108918
0.087559
0.0837627
0.0576464
0.0532216
0.0240221
0.0192334
-0.0114201
-0.016306
-0.0467208
-0.0514177
-0.079725
-0.0839119
-0.107983
-0.111297
-0.128731
-0.130777
-0.139013
-0.139395
-0.135991
-0.134371
-0.117472
-0.113658
-0.08265
-0.0767143
-0.0411013
-0.0378094
0.0461097
0.0501753
0.0906316
0.0975556
0.131679
0.135907
0.153874
0.155588
0.159181
0.158739
0.150373
0.148184
0.130358
0.126819
0.101844
0.0973094
0.0672211
0.0620018
0.028598
0.0229751
-0.0120628
-0.017815
-0.0527597
-0.0583451
-0.0912506
-0.0963237
-0.124877
-0.129023
-0.150464
-0.153197
-0.164385
-0.165174
-0.162862
-0.161199
-0.142592
-0.138109
-0.10174
-0.0943824
-0.0515704
-0.0472778
0.0476524
0.0515974
0.0936095
0.100534
0.135591
0.139819
0.158079
0.159792
0.16322
0.162778
0.153955
0.151766
0.133314
0.129774
0.104085
0.0995504
0.0687031
0.0634838
0.0292921
0.0236692
-0.0121865
-0.0179388
-0.0537372
-0.0593225
-0.0931161
-0.0981892
-0.12764
-0.131787
-0.154073
-0.156806
-0.16867
-0.169459
-0.167477
-0.165814
-0.146969
-0.142485
-0.105088
-0.0977307
-0.0531515
-0.048993
0.0576133
0.0625628
0.111663
0.11996
0.159985
0.164803
0.18444
0.186161
0.188488
0.187673
0.176254
0.173476
0.15165
0.147417
0.118019
0.112749
0.0780698
0.0720982
0.034
0.0276056
-0.0122837
-0.0188411
-0.0588875
-0.0653262
-0.103631
-0.109604
-0.143754
-0.148812
-0.175683
-0.179251
-0.194961
-0.196349
-0.196467
-0.194939
-0.175117
-0.170037
-0.127206
-0.118296
-0.0656214
-0.0603138
0.0594131
0.0642218
0.115029
0.123326
0.164255
0.169073
0.188861
0.190582
0.192579
0.191764
0.179757
0.17698
0.154459
0.150226
0.120111
0.114842
0.0794578
0.0734862
0.0346927
0.0282983
-0.0123015
-0.018859
-0.0596641
-0.0661028
-0.105242
-0.111215
-0.146278
-0.151335
-0.179156
-0.182723
-0.1993
-0.200688
-0.201379
-0.199851
-0.18
-0.17492
-0.131104
-0.122194
-0.067538
-0.062393
0.0709673
0.0768843
0.135322
0.145045
0.190649
0.195932
0.216183
0.217719
0.217624
0.216264
0.200929
0.197457
0.171233
0.166282
0.132541
0.126585
0.0877952
0.0811761
0.0391344
0.0321056
-0.0117728
-0.0189943
-0.063349
-0.0705272
-0.113704
-0.120524
-0.160206
-0.166214
-0.199069
-0.203618
-0.225052
-0.227281
-0.231469
-0.23035
-0.21082
-0.205323
-0.156487
-0.145947
-0.0824219
-0.0759777
0.073097
0.0788475
0.139114
0.148837
0.195214
0.200497
0.220648
0.222184
0.22152
0.22016
0.204079
0.200607
0.173632
0.168682
0.134265
0.12831
0.088935
0.0823159
0.0397506
0.0327219
-0.0116715
-0.018893
-0.0638185
-0.0709968
-0.114863
-0.121684
-0.162218
-0.168226
-0.20209
-0.206639
-0.229143
-0.231372
-0.236456
-0.235337
-0.216126
-0.210628
-0.16099
-0.150449
-0.0847683
-0.0785232
0.0866856
0.0936371
0.161837
0.172958
0.223089
0.228581
0.247634
0.248685
0.244521
0.24239
0.222118
0.217844
0.186947
0.18129
0.143607
0.137077
0.0951071
0.0880268
0.0433247
0.0358918
-0.0105233
-0.0181666
-0.0654097
-0.0731092
-0.120004
-0.12752
-0.172119
-0.179038
-0.218078
-0.223724
-0.252088
-0.255442
-0.265824
-0.26551
-0.248704
-0.243139
-0.189722
-0.177587
-0.10261
-0.0949327
0.0892714
0.0960207
0.166095
0.177216
0.227814
0.233306
0.251852
0.252903
0.247844
0.245714
0.224522
0.220248
0.188581
0.182924
0.144676
0.138147
0.0957964
0.0887162
0.0437577
0.0363248
-0.0103057
-0.0179489
-0.0654627
-0.0731622
-0.120485
-0.128
-0.173276
-0.180195
-0.220217
-0.225863
-0.255472
-0.258826
-0.270498
-0.270185
-0.254227
-0.248662
-0.194855
-0.18272
-0.105526
-0.0980963
0.105625
0.113634
0.191401
0.203736
0.25611
0.261352
0.276338
0.276472
0.266068
0.262894
0.23664
0.23148
0.195944
0.18966
0.14893
0.14203
0.0983851
0.0911293
0.0456705
0.03817
-0.00866516
-0.0163726
-0.06436
-0.0722363
-0.12091
-0.128835
-0.176936
-0.184602
-0.229353
-0.236128
-0.272322
-0.277087
-0.296145
-0.297165
-0.28668
-0.281641
-0.226644
-0.213167
-0.12704
-0.118102
0.108884
0.116638
0.196145
0.20848
0.260719
0.265962
0.27983
0.279964
0.268269
0.265095
0.237775
0.232614
0.196373
0.190088
0.149006
0.142105
0.0983897
0.0911339
0.0457895
0.038289
-0.00835514
-0.0160626
-0.0639015
-0.0717779
-0.120479
-0.128403
-0.176851
-0.184517
-0.230068
-0.236843
-0.274353
-0.279118
-0.299881
-0.300901
-0.292001
-0.286963
-0.232353
-0.218876
-0.130735
-0.122111
0.129167
0.138145
0.22391
0.236977
0.287294
0.291534
0.298293
0.296936
0.277797
0.273309
0.240363
0.234316
0.194828
0.188112
0.145952
0.138999
0.09587
0.0888334
0.0451545
0.038027
-0.00647907
-0.0137828
-0.0596592
-0.0672372
-0.114887
-0.122776
-0.17193
-0.179996
-0.228882
-0.236644
-0.280704
-0.287079
-0.317194
-0.32017
-0.320812
-0.317219
-0.266048
-0.251868
-0.156798
-0.146734
0.133461
0.142104
0.229051
0.242118
0.291235
0.295475
0.300295
0.298938
0.278119
0.273631
0.239595
0.233549
0.193572
0.186856
0.144696
0.137743
0.0949685
0.087932
0.0448304
0.0377029
-0.00612122
-0.013425
-0.0586362
-0.0662143
-0.113358
-0.121248
-0.170234
-0.1783
-0.227576
-0.235339
-0.280559
-0.286934
-0.31905
-0.322026
-0.325148
-0.321556
-0.272077
-0.257897
-0.16158
-0.151922
0.159465
0.16906
0.258193
0.270959
0.311804
0.313907
0.307124
0.303638
0.273671
0.267727
0.228467
0.221728
0.180141
0.17337
0.132364
0.125818
0.0860971
0.0797725
0.0409049
0.0346637
-0.00435259
-0.010713
-0.051135
-0.0578404
-0.100924
-0.108176
-0.154793
-0.162682
-0.212558
-0.220883
-0.271106
-0.279032
-0.32142
-0.326922
-0.34416
-0.343293
-0.3047
-0.291126
-0.193165
-0.182463
0.165411
0.174541
0.263313
0.276078
0.313976
0.31608
0.306452
0.302966
0.271157
0.265212
0.225137
0.218398
0.176796
0.170024
0.129549
0.123004
0.0841622
0.0778376
0.0400585
0.0338172
-0.00400183
-0.0103623
-0.0495688
-0.0562741
-0.098237
-0.105489
-0.151253
-0.159142
-0.208704
-0.21703
-0.267855
-0.275782
-0.320081
-0.325582
-0.346126
-0.345259
-0.310332
-0.296758
-0.199502
-0.189338
0.199352
0.208614
0.289998
0.300378
0.320101
0.318549
0.293029
0.286985
0.246275
0.23913
0.196311
0.189434
0.149418
0.143217
0.107058
0.101516
0.0686078
0.0635392
0.0326261
0.0277843
-0.00265837
-0.00754944
-0.0392074
-0.0444491
-0.0791411
-0.0850565
-0.124621
-0.131521
-0.177367
-0.18542
-0.237226
-0.246114
-0.29884
-0.307032
-0.345107
-0.348486
-0.335014
-0.324487
-0.23691
-0.226754
0.207711
0.216319
0.293717
0.304097
0.318421
0.31687
0.288012
0.281967
0.239928
0.232783
0.189973
0.183096
0.143877
0.137676
0.102738
0.0971957
0.0657255
0.0606568
0.0312966
0.0264548
-0.00236156
-0.00725264
-0.0372312
-0.0424729
-0.0754676
-0.0813831
-0.119331
-0.126231
-0.170774
-0.178827
-0.230104
-0.238992
-0.292711
-0.300904
-0.342433
-0.345813
-0.338434
-0.327908
-0.245173
-0.235718
0.245635
0.252684
0.30623
0.310484
0.295602
0.288968
0.243825
0.235672
0.189479
0.182215
0.142296
0.136362
0.103558
0.098804
0.0718386
0.0679516
0.0450616
0.0417274
0.0212085
0.0181464
-0.00159535
-0.00465011
-0.0252249
-0.0285536
-0.0517696
-0.0557079
-0.0837492
-0.0887191
-0.124174
-0.130668
-0.175969
-0.18436
-0.239657
-0.249607
-0.306767
-0.31545
-0.339499
-0.335926
-0.28035
-0.272861
0.254132
0.260517
0.304649
0.308903
0.287252
0.280618
0.233288
0.225135
0.179282
0.172017
0.133515
0.127581
0.0965658
0.0918122
0.0667003
0.0628133
0.0417367
0.0384025
0.0196544
0.0165924
-0.00137496
-0.00442972
-0.0231592
-0.0264879
-0.0477192
-0.0516575
-0.0775359
-0.0825059
-0.11568
-0.122174
-0.165383
-0.173774
-0.227996
-0.237946
-0.296797
-0.305479
-0.336381
-0.332808
-0.287516
-0.280635
0.255332
0.258432
0.27155
0.266633
0.219741
0.209234
0.156912
0.14902
0.109633
0.104244
0.0760621
0.0723897
0.0521735
0.0496148
0.0346511
0.0327758
0.0210392
0.0195548
0.00958664
0.00829014
-0.00103832
-0.00230964
-0.0120395
-0.0134511
-0.0247808
-0.0265487
-0.0411325
-0.0435886
-0.0639148
-0.0675941
-0.0973202
-0.103041
-0.146783
-0.155592
-0.215665
-0.227589
-0.282526
-0.288325
-0.276506
-0.273523
0.247434
0.251152
0.257105
0.252189
0.204177
0.193669
0.14329
0.135398
0.0987175
0.0933285
0.067729
0.0640567
0.0460571
0.0434984
0.0303966
0.0285213
0.0183808
0.0168965
0.00836392
0.00706742
-0.000879154
-0.00215048
-0.0104408
-0.0118524
-0.0215592
-0.0233271
-0.0359568
-0.0384129
-0.0562915
-0.0599708
-0.0866464
-0.092367
-0.132624
-0.141433
-0.198571
-0.210494
-0.265829
-0.271628
-0.267265
-0.263498
0.178309
0.173754
0.15925
0.153775
0.110319
0.103766
0.0686115
0.0646603
0.0427374
0.0405098
0.0270056
0.025726
0.0171936
0.0164323
0.0107687
0.0102849
0.00621679
0.00587577
0.00263008
0.00235425
-0.000583834
-0.000846981
-0.00391014
-0.00421042
-0.00790074
-0.00830816
-0.0133945
-0.0140353
-0.0218708
-0.0229931
-0.0360288
-0.038121
-0.0606261
-0.0646062
-0.102434
-0.109362
-0.157104
-0.163111
-0.179904
-0.185029
0.166996
0.163106
0.147734
0.141794
0.101778
0.0946692
0.0622591
0.0579727
0.0381174
0.0357008
0.0237158
0.0223276
0.0148989
0.014073
0.00923143
0.00870661
0.00528494
0.00491499
0.00221816
0.00191892
-0.000506592
-0.000792066
-0.00332167
-0.00364743
-0.00671738
-0.00715936
-0.0114479
-0.0121432
-0.018868
-0.0200855
-0.0315015
-0.0337713
-0.0539132
-0.058231
-0.0927646
-0.100281
-0.14399
-0.150507
-0.168075
-0.172468
)
;

boundaryField
{
    movingWall
    {
        type            calculated;
        value           uniform 0;
    }
    fixedWalls
    {
        type            calculated;
        value           uniform 0;
    }
    frontAndBack
    {
        type            empty;
    }
}


// ************************************************************************* //
