/*--------------------------------*- C++ -*----------------------------------*\
| =========                 |                                                 |
| \\      /  F ield         | OpenFOAM: The Open Source CFD Toolbox           |
|  \\    /   O peration     | Version:  2312                                  |
|   \\  /    A nd           | Website:  www.openfoam.com                      |
|    \\/     M anipulation  |                                                 |
\*---------------------------------------------------------------------------*/
FoamFile
{
    version     2.0;
    format      ascii;
    arch        "LSB;label=32;scalar=64";
    class       volScalarField;
    location    "0";
    object      nut;
}
// * * * * * * * * * * * * * * * * * * * * * * * * * * * * * * * * * * * * * //

dimensions      [0 2 -1 0 0 0 0];

internalField   uniform 1e-05;

boundaryField
{
    down
    {
        type            symmetry;
    }
    right
    {
        type            calculated;
        value           nonuniform List<scalar> 0();
    }
    up
    {
        type            symmetry;
    }
    left
    {
        type            calculated;
        value           uniform 1e-05;
    }
    cylinder
    {
        type            calculated;
        value           uniform 1e-05;
    }
    frontAndBack
    {
        type            symmetry;
    }
    procBoundary0to1
    {
        type            processor;
        value           uniform 1e-05;
    }
    procBoundary0to2
    {
        type            processor;
        value           uniform 1e-05;
    }
}


// ************************************************************************* //
