/*--------------------------------*- C++ -*----------------------------------*\
| =========                 |                                                 |
| \\      /  F ield         | OpenFOAM: The Open Source CFD Toolbox           |
|  \\    /   O peration     | Version:  2312                                  |
|   \\  /    A nd           | Website:  www.openfoam.com                      |
|    \\/     M anipulation  |                                                 |
\*---------------------------------------------------------------------------*/
FoamFile
{
    version     2.0;
    format      ascii;
    arch        "LSB;label=32;scalar=64";
    class       volScalarField;
    location    "1.5";
    object      nut;
}
// * * * * * * * * * * * * * * * * * * * * * * * * * * * * * * * * * * * * * //

dimensions      [0 2 -1 0 0 0 0];

internalField   nonuniform List<scalar> 
326144
(
1.69271e-10
1.27265e-08
1.83067e-07
1.03427e-06
3.48145e-06
8.51703e-06
1.66386e-05
2.72216e-05
3.7798e-05
4.28999e-05
3.54448e-05
5.6837e-05
0.000156482
0.000326532
0.000561028
0.000694054
0.000832905
0.000973823
0.00111406
0.0012514
0.00138183
0.00150066
0.00160196
0.00167746
0.00171676
0.00170755
0.00163583
0.00148679
0.00124573
0.000909866
0.000491274
0.000109614
0.000352626
0.00045006
0.000409284
0.000350891
0.00034028
0.000365449
0.00038794
0.0003901
0.000404528
0.00039165
0.000425935
0.000405479
9.7004e-10
7.29772e-08
5.6661e-07
2.20933e-06
5.93464e-06
1.22684e-05
2.02606e-05
2.60022e-05
1.93045e-05
1.86552e-05
9.5478e-05
0.000222598
0.000424717
0.000553312
0.000682614
0.000820651
0.000961379
0.00110015
0.00123273
0.00135445
0.00145937
0.00154046
0.00158894
0.00159462
0.00154613
0.00143094
0.00123671
0.000954664
0.00059449
0.00019758
0.000163635
0.000327265
0.000314966
0.000254225
0.000228843
0.000257321
0.000297832
0.000318104
0.000320095
0.000321156
0.000327091
0.00032887
0.000347856
0.000311858
2.99597e-09
1.99684e-07
1.27901e-06
3.95355e-06
8.17485e-06
1.19888e-05
9.81712e-06
2.21389e-05
8.62865e-05
0.000199963
0.000368766
0.00058926
0.00068638
0.000803147
0.000922929
0.00104224
0.00115764
0.00126448
0.00135746
0.00142996
0.00147431
0.00148175
0.00144263
0.00134655
0.00118349
0.000944775
0.0006329
0.000277124
5.66032e-05
0.000248787
0.000262446
0.000200591
0.000160441
0.00017736
0.000223599
0.000254337
0.000263025
0.000263647
0.000267458
0.000272353
0.000283385
0.000287716
0.000296799
0.00028816
4.24046e-09
2.80985e-07
1.72344e-06
4.75292e-06
7.37418e-06
2.31783e-06
2.94892e-05
0.000104501
0.0002335
0.000419538
0.000675714
0.000886067
0.000978493
0.00108185
0.00117955
0.00126792
0.00134294
0.00139932
0.00143057
0.00142933
0.00138749
0.00129641
0.00114785
0.000935133
0.000658934
0.000337151
5.03841e-05
0.000196738
0.000235628
0.000179243
0.000127673
0.000130082
0.000171764
0.000205823
0.000216555
0.000218716
0.000224646
0.000232641
0.000239491
0.000243803
0.000255299
0.000257482
0.000275084
0.000266596
5.22803e-09
3.39654e-07
1.99321e-06
4.84278e-06
3.8844e-06
1.66837e-05
8.03351e-05
0.000203565
0.00039004
0.000639415
0.000973561
0.00114087
0.00121873
0.00129879
0.00136343
0.00140789
0.00142761
0.00141694
0.00136938
0.00127809
0.00113635
0.000938989
0.000686167
0.000391825
0.000105972
0.000145752
0.000210316
0.000167704
0.000112544
0.000103642
0.000137693
0.000171127
0.000181789
0.00018208
0.000188698
0.000201615
0.000212023
0.000217099
0.000220429
0.000225606
0.000237187
0.000242684
0.000261203
0.000248618
5.50944e-09
3.49321e-07
1.95999e-06
4.05252e-06
3.00818e-06
3.81326e-05
0.000131552
0.00029549
0.0005287
0.000825802
0.00121165
0.00134236
0.00138354
0.0014211
0.00143348
0.00141488
0.00136089
0.00126691
0.00112843
0.000942164
0.000707943
0.000436663
0.000164678
9.99444e-05
0.000183025
0.000158419
0.000107239
9.27319e-05
0.000119802
0.000151147
0.000161882
0.000159917
0.000163547
0.00017643
0.00018981
0.000197982
0.000202102
0.00020519
0.00020939
0.000215662
0.00022677
0.000231597
0.000246438
0.000229108
4.58655e-09
2.82667e-07
1.49512e-06
2.52099e-06
9.12531e-06
5.41945e-05
0.000163365
0.000347603
0.000602764
0.000918433
0.00130778
0.00147399
0.00145017
0.00142597
0.00136862
0.00127142
0.00113171
0.000949049
0.000726065
0.000472554
0.00021593
7.86697e-05
0.000157516
0.000153034
0.000111193
9.56687e-05
0.000116615
0.00014451
0.000155301
0.000152647
0.000153258
0.000162907
0.000174464
0.000182403
0.000187969
0.000193203
0.000197629
0.000200842
0.000204077
0.000209671
0.000217328
0.000220546
0.000228632
0.000210888
2.99641e-09
1.70707e-07
7.4787e-07
1.80966e-06
1.46688e-05
6.13627e-05
0.000166112
0.000339577
0.000578379
0.000871052
0.00120571
0.00149621
0.00139146
0.00128955
0.00115362
0.00097713
0.000761567
0.000516675
0.000266654
8.41167e-05
0.000129869
0.00014734
0.00011876
0.000104688
0.000120692
0.000144632
0.000154784
0.000152159
0.000151172
0.000158249
0.000167415
0.000173106
0.00017707
0.000182636
0.000189285
0.000194456
0.000197177
0.000198484
0.00020042
0.000203931
0.000207969
0.00020843
0.000211587
0.00019711
1.35559e-09
5.87211e-08
2.6836e-07
3.04938e-06
1.63469e-05
5.53435e-05
0.000137061
0.000269964
0.000450844
0.000668437
0.000905109
0.00115162
0.00119804
0.00100579
0.000804921
0.000582248
0.000345868
0.00013032
8.38799e-05
0.000128419
0.000120161
0.000112013
0.000125639
0.000146436
0.000156098
0.000154352
0.000153194
0.00015886
0.000166609
0.000170952
0.000173009
0.00017653
0.000182139
0.000187945
0.000192575
0.00019564
0.000197061
0.000197252
0.000197472
0.00019829
0.000198603
0.000197174
0.000197399
0.00018481
2.83351e-10
1.56002e-08
4.28122e-07
3.0919e-06
1.28173e-05
3.76841e-05
8.59104e-05
0.000160624
0.000257415
0.000366016
0.000473522
0.000568015
0.000634545
0.000635374
0.000421993
0.00022858
7.98561e-05
8.33032e-05
0.000105458
0.000112099
0.000128112
0.000147895
0.000158238
0.000158503
0.000158404
0.000163628
0.000170674
0.000174734
0.000176345
0.000178642
0.000182335
0.000186149
0.000189653
0.00019328
0.000196754
0.000198954
0.000199141
0.000197699
0.000195894
0.000193684
0.000190899
0.00018777
0.000183887
0.000173158
3.56789e-11
1.36067e-08
1.98607e-07
1.15232e-06
4.16069e-06
1.09715e-05
2.28455e-05
3.95241e-05
5.90348e-05
7.8373e-05
9.44423e-05
0.000104749
0.000107459
9.96945e-05
7.51399e-05
4.71645e-05
7.02505e-05
0.000110981
0.000132415
0.000152079
0.000163142
0.000165781
0.000167524
0.000172678
0.000178867
0.000182594
0.000184365
0.000186652
0.000189806
0.000192435
0.000194182
0.000196033
0.000198615
0.000201465
0.000203675
0.000204427
0.000203269
0.000200487
0.000196652
0.000191524
0.000186166
0.000180854
0.000172708
0.00016573
5.35677e-10
8.4702e-08
9.92238e-07
4.9919e-06
1.5753e-05
3.61335e-05
6.56123e-05
0.000100375
0.000135542
0.000166945
0.000191246
0.00020474
0.00019882
0.000154568
7.83617e-05
0.000101294
0.000140694
0.000163119
0.000174478
0.000178658
0.000181464
0.000186162
0.000191243
0.000194339
0.000195993
0.000198168
0.000201137
0.000203651
0.000205157
0.000206276
0.000207558
0.000208967
0.000210397
0.000211758
0.000212652
0.000212313
0.000210152
0.000206196
0.000200451
0.000193035
0.000186225
0.000179172
0.000167804
0.000168987
2.96673e-09
3.50785e-07
3.51545e-06
1.5487e-05
4.2828e-05
8.67911e-05
0.00014241
0.000202553
0.000260178
0.000307487
0.00033417
0.000327761
0.000189653
7.36825e-05
0.000123445
0.000161823
0.000177472
0.000186669
0.000194013
0.000200856
0.000206344
0.000209528
0.000211315
0.000213326
0.000215835
0.000218026
0.000219582
0.000220939
0.000222293
0.000223331
0.000223868
0.000224167
0.000224512
0.000224782
0.000224549
0.000223243
0.000220371
0.000215631
0.000208701
0.000200667
0.000194646
0.000188322
0.000179107
0.000198314
7.74552e-09
7.80469e-07
6.94895e-06
2.74205e-05
6.84092e-05
0.000127189
0.000195212
0.000262747
0.000319464
0.000353102
0.000353025
0.000204362
6.21943e-05
0.000116768
0.000160394
0.000183269
0.000200531
0.000212988
0.000220974
0.000225478
0.000228137
0.000230418
0.000232657
0.000234478
0.000235878
0.000237317
0.000238955
0.000240446
0.000241466
0.000242007
0.000242144
0.000241951
0.000241544
0.00024094
0.000240001
0.000238427
0.000235698
0.000231209
0.000225087
0.000219706
0.000218025
0.000217153
0.000222178
0.000274776
1.71359e-10
1.27868e-08
1.83921e-07
1.03998e-06
3.50258e-06
8.57199e-06
1.67507e-05
2.74147e-05
3.80889e-05
4.32872e-05
3.5828e-05
5.6963e-05
0.000156937
0.000327666
0.000560408
0.000693556
0.000832467
0.000973409
0.00111369
0.0012511
0.00138163
0.00150056
0.00160193
0.00167753
0.00171695
0.0017079
0.00163637
0.00148758
0.00124685
0.000911329
0.000493069
0.000110007
0.00035186
0.000450183
0.000409751
0.000351261
0.000340389
0.000365462
0.00038797
0.000390169
0.000404512
0.000391563
0.00042578
0.000405399
9.65986e-10
7.27346e-08
5.6525e-07
2.20583e-06
5.92938e-06
1.22665e-05
2.02774e-05
2.60731e-05
1.95006e-05
1.82487e-05
9.48586e-05
0.000221713
0.000423423
0.000552862
0.000682276
0.000820391
0.00096117
0.00109999
0.00123261
0.00135437
0.00145933
0.00154046
0.001589
0.00159477
0.00154643
0.00143146
0.00123755
0.000955882
0.000596077
0.000199291
0.000162368
0.000327011
0.000315294
0.000254629
0.000229028
0.000257312
0.000297859
0.000318245
0.000320259
0.000321291
0.000327105
0.00032883
0.000347732
0.000311628
2.99559e-09
1.99677e-07
1.27926e-06
3.95625e-06
8.18797e-06
1.20314e-05
9.90588e-06
2.19397e-05
8.59206e-05
0.00019946
0.000368149
0.000588594
0.000685791
0.000802604
0.00092244
0.0010418
0.00115724
0.00126411
0.00135713
0.00142968
0.0014741
0.00148164
0.00144268
0.00134683
0.00118408
0.00094577
0.000634314
0.000278767
5.5222e-05
0.00024821
0.00026261
0.000200962
0.000160681
0.000177365
0.000223573
0.000254454
0.000263254
0.000263899
0.000267663
0.00027253
0.000283444
0.000287776
0.000296675
0.000288008
4.24388e-09
2.81224e-07
1.72509e-06
4.75906e-06
7.39269e-06
2.36005e-06
2.93859e-05
0.000104324
0.000233238
0.000419184
0.000675273
0.000885384
0.000977853
0.00108121
0.00117892
0.00126729
0.00134234
0.00139876
0.00143008
0.00142896
0.00138729
0.00129647
0.00114825
0.000935946
0.000660189
0.000338727
5.11084e-05
0.000195982
0.000235692
0.000179628
0.000127981
0.000130175
0.000171785
0.000205969
0.00021683
0.000219027
0.000224954
0.000232959
0.000239808
0.000244105
0.000255505
0.000257682
0.000275086
0.000266695
5.23246e-09
3.39984e-07
1.99545e-06
4.85008e-06
3.90175e-06
1.66452e-05
8.0262e-05
0.000203428
0.0003898
0.000639042
0.000973054
0.00114007
0.00121795
0.001298
0.00136265
0.00140715
0.00142695
0.00141641
0.00136905
0.00127803
0.00113665
0.00093972
0.000687358
0.00039338
0.000107361
0.000144816
0.000210252
0.000168106
0.000112946
0.000103827
0.000137761
0.000171307
0.000182128
0.000182474
0.00018908
0.00020202
0.000212493
0.000217622
0.00022096
0.000226122
0.000237624
0.000243153
0.000261502
0.000249089
5.51513e-09
3.49729e-07
1.96254e-06
4.05926e-06
2.99661e-06
3.81118e-05
0.0001315
0.000295355
0.000528419
0.000825329
0.00121098
0.0013413
0.00138257
0.00142019
0.00143267
0.00141422
0.00136045
0.00126678
0.00112869
0.000942887
0.000709162
0.000438289
0.000166291
9.90052e-05
0.00018277
0.000158759
0.000107681
9.29891e-05
0.000119918
0.000151333
0.000162234
0.000160368
0.000164006
0.000176903
0.000190351
0.000198617
0.000202823
0.000205972
0.000210213
0.000216503
0.000227601
0.000232503
0.000247218
0.00023011
4.59432e-09
2.8318e-07
1.49814e-06
2.52659e-06
9.11493e-06
5.41918e-05
0.000163359
0.000347547
0.000602592
0.000918089
0.0013073
0.00147279
0.00144919
0.00142518
0.00136807
0.00127119
0.00113189
0.000949739
0.00072731
0.000474274
0.000217768
7.83505e-05
0.000157054
0.000153281
0.000111624
9.5955e-05
0.000116771
0.000144718
0.000155672
0.000153141
0.000153788
0.000163464
0.000175093
0.000183128
0.000188789
0.000194131
0.000198681
0.000202015
0.000205355
0.000211032
0.000218768
0.000222132
0.000230129
0.000212683
3.00634e-09
1.71315e-07
7.50981e-07
1.80706e-06
1.46699e-05
6.14055e-05
0.000166228
0.000339759
0.00057859
0.000871243
0.001206
0.00149507
0.00139075
0.00128923
0.00115373
0.000977742
0.000762748
0.000518416
0.000268701
8.50381e-05
0.0001292
0.00014743
0.000119179
0.000105031
0.000120914
0.000144895
0.000155179
0.000152666
0.00015175
0.000158893
0.000168155
0.000173952
0.000178008
0.000183672
0.000190457
0.000195807
0.000198731
0.00020024
0.000202376
0.00020608
0.000210352
0.000211075
0.000214266
0.000200337
1.36451e-09
5.9213e-08
2.68317e-07
3.04978e-06
1.63707e-05
5.54457e-05
0.000137316
0.000270437
0.000451586
0.000669501
0.000906548
0.00115369
0.00119805
0.00100645
0.000806108
0.000583955
0.000347951
0.00013226
8.32919e-05
0.000128278
0.000120483
0.000112372
0.000125914
0.000146747
0.000156563
0.000154936
0.000153795
0.000159505
0.000167396
0.000171891
0.000174062
0.000177684
0.000183422
0.000189403
0.000194257
0.000197585
0.00019931
0.000199834
0.000200404
0.000201609
0.000202404
0.000201459
0.000202031
0.000190438
2.8784e-10
1.55149e-08
4.28785e-07
3.10186e-06
1.28672e-05
3.78428e-05
8.62828e-05
0.000161329
0.000258565
0.000367717
0.000475882
0.000571143
0.000638435
0.000636991
0.000424127
0.000230818
8.12257e-05
8.30271e-05
0.000105642
0.000112405
0.000128387
0.000148248
0.000158731
0.000159122
0.00015908
0.000164334
0.000171457
0.000175662
0.000177437
0.000179868
0.000183702
0.000187697
0.00019141
0.000195286
0.000199079
0.00020167
0.000202328
0.000201411
0.000200186
0.000198686
0.000196763
0.000194504
0.000191564
0.000182491
3.59346e-11
1.39122e-08
2.03413e-07
1.18093e-06
4.26544e-06
1.12504e-05
2.34308e-05
4.05444e-05
6.05734e-05
8.04447e-05
9.69901e-05
0.000107659
0.000110584
0.000102845
7.78773e-05
4.88859e-05
7.19915e-05
0.000111181
0.00013263
0.000152331
0.000163546
0.000166414
0.000168253
0.000173409
0.00017967
0.000183527
0.000185441
0.000187855
0.000191159
0.000193984
0.000195948
0.000198044
0.000200915
0.000204125
0.000206794
0.000208112
0.000207646
0.00020566
0.000202742
0.000198806
0.000194822
0.000190979
0.000184724
0.00018008
5.26116e-10
8.34331e-08
9.78419e-07
4.92603e-06
1.55571e-05
3.57145e-05
6.49078e-05
9.93799e-05
0.000134303
0.000165545
0.000189804
0.00020344
0.000198012
0.000154771
7.95094e-05
0.00010112
0.000140673
0.000163316
0.000174868
0.000179213
0.0001821
0.000186841
0.000192015
0.000195227
0.000197002
0.000199302
0.000202413
0.000205099
0.000206809
0.000208173
0.000209727
0.00021146
0.000213285
0.000215132
0.000216642
0.000217088
0.000215892
0.000213079
0.00020868
0.000203047
0.00019809
0.000193058
0.000184681
0.000187713
2.93529e-09
3.47592e-07
3.48652e-06
1.5372e-05
4.25469e-05
8.62961e-05
0.000141708
0.000201695
0.000259262
0.000306672
0.000333719
0.000328138
0.000192047
7.4669e-05
0.00012289
0.000161813
0.000177734
0.000187075
0.000194514
0.000201433
0.000207021
0.000210324
0.000212224
0.000214341
0.000216966
0.000219292
0.000221013
0.000222578
0.000224179
0.000225508
0.000226378
0.00022707
0.00022791
0.000228774
0.0002293
0.000229003
0.000227367
0.000224076
0.000218882
0.000213114
0.000208887
0.000204
0.000197339
0.000213617
7.68035e-09
7.74749e-07
6.90379e-06
2.72659e-05
6.80856e-05
0.000126698
0.000194614
0.000262158
0.000319055
0.000353126
0.0003539
0.000207048
6.37555e-05
0.000116088
0.000160335
0.000183399
0.000200781
0.000213369
0.000221484
0.000226112
0.000228875
0.000231249
0.000233591
0.000235526
0.000237055
0.000238643
0.000240458
0.000242156
0.000243426
0.000244285
0.000244792
0.000245028
0.000245185
0.000245222
0.000245044
0.000244541
0.000243204
0.000240188
0.000235703
0.000232119
0.000230863
0.000228891
0.000230878
0.000269244
1.72047e-10
1.28076e-08
1.84216e-07
1.04192e-06
3.5097e-06
8.59035e-06
1.67879e-05
2.74779e-05
3.81828e-05
4.34107e-05
3.59566e-05
5.70311e-05
0.000157115
0.000328066
0.000560218
0.000693373
0.000832268
0.000973175
0.00111341
0.00125079
0.00138129
0.00150019
0.00160152
0.00167707
0.00171648
0.00170743
0.00163593
0.00148722
0.00124662
0.000911286
0.000493253
0.000110256
0.000351729
0.000450196
0.000409884
0.000351444
0.000340559
0.000365619
0.000388111
0.000390315
0.000404581
0.000391645
0.000425649
0.00040531
9.64728e-10
7.26588e-08
5.64822e-07
2.20471e-06
5.92765e-06
1.22656e-05
2.0282e-05
2.60946e-05
1.95646e-05
1.81048e-05
9.46265e-05
0.000221365
0.000422894
0.000552562
0.000681976
0.000820075
0.000960823
0.00109961
0.00123219
0.00135391
0.00145882
0.00153991
0.00158842
0.00159419
0.00154589
0.001431
0.00123723
0.00095576
0.000596195
0.000199609
0.000162029
0.000326853
0.000315337
0.000254794
0.000229235
0.000257519
0.000298085
0.000318514
0.00032054
0.000321576
0.000327301
0.000329012
0.000347699
0.000311632
2.99537e-09
1.99664e-07
1.27925e-06
3.9568e-06
8.19148e-06
1.20443e-05
9.93562e-06
2.186e-05
8.5755e-05
0.000199199
0.000367774
0.000588108
0.000685289
0.000802067
0.000921867
0.00104119
0.00115658
0.00126341
0.00135639
0.00142891
0.00147332
0.00148088
0.00144197
0.00134623
0.00118366
0.000945589
0.000634405
0.000279084
5.47594e-05
0.000247912
0.000262566
0.000201087
0.000160887
0.000177594
0.000223825
0.000254767
0.00026364
0.000264341
0.000268112
0.000272985
0.000283793
0.000288144
0.000296768
0.000288215
4.24374e-09
2.81226e-07
1.72521e-06
4.76006e-06
7.39807e-06
2.37566e-06
2.93217e-05
0.000104188
0.000232998
0.000418806
0.00067471
0.000884697
0.000977113
0.0010804
0.00117804
0.00126636
0.00134136
0.00139775
0.00142908
0.00142799
0.00138641
0.00129573
0.00114773
0.000935721
0.000660287
0.000339103
5.1321e-05
0.000195619
0.00023564
0.000179783
0.000128229
0.000130469
0.00017211
0.000206352
0.000217291
0.000219562
0.000225554
0.000233615
0.00024049
0.000244797
0.000256107
0.000258321
0.000275412
0.000267293
5.23055e-09
3.39902e-07
1.99524e-06
4.85099e-06
3.91095e-06
1.66038e-05
8.01489e-05
0.000203194
0.000389392
0.000638404
0.000972098
0.00113911
0.00121691
0.0012969
0.00136149
0.00140596
0.00142577
0.00141529
0.00136805
0.00127723
0.00113611
0.000939535
0.000687555
0.000393905
0.000107932
0.00014431
0.000210153
0.000168322
0.000113289
0.000104199
0.000138156
0.000171771
0.000182688
0.000183115
0.00018979
0.000202809
0.000213378
0.000218593
0.000221985
0.000227164
0.000238613
0.000244204
0.000262263
0.000250234
5.51356e-09
3.49664e-07
1.9624e-06
4.06039e-06
2.98548e-06
3.80562e-05
0.000131346
0.00029503
0.000527847
0.000824433
0.00120965
0.00133996
0.00138121
0.00141882
0.00143133
0.00141298
0.00135937
0.00126595
0.0011282
0.000942819
0.000709559
0.000439089
0.000167199
9.84118e-05
0.000182546
0.000158956
0.000108082
9.34428e-05
0.000120376
0.00015184
0.000162853
0.000161105
0.000164829
0.000177804
0.000191355
0.000199754
0.000204098
0.000207371
0.000211709
0.00021806
0.000229183
0.000234191
0.000248669
0.000232006
4.59793e-09
2.83385e-07
1.49916e-06
2.52748e-06
9.10308e-06
5.41591e-05
0.00016326
0.000347304
0.000602113
0.000917284
0.00130609
0.00147109
0.00144767
0.00142381
0.0013669
0.00127032
0.00113142
0.000949784
0.000727929
0.000475406
0.000219113
7.81603e-05
0.000156651
0.000153462
0.00011208
9.64358e-05
0.000117246
0.000145272
0.00015636
0.000153959
0.000154715
0.000164491
0.000176232
0.000184399
0.000190215
0.000195735
0.000200479
0.00020401
0.000207536
0.000213365
0.000221252
0.000224803
0.000232659
0.000215749
3.01633e-09
1.71856e-07
7.53223e-07
1.80421e-06
1.46751e-05
6.14473e-05
0.000166318
0.000339863
0.000578642
0.00087116
0.00120586
0.00149325
0.00138938
0.00128832
0.00115329
0.000977855
0.000763492
0.000519794
0.000270478
8.59746e-05
0.000128598
0.000147501
0.000119674
0.000105641
0.000121487
0.000145461
0.000155872
0.000153551
0.000152789
0.000160047
0.000169433
0.000175379
0.000179596
0.000185435
0.00019243
0.00019804
0.000201258
0.000203083
0.000205535
0.000209546
0.000214166
0.000215227
0.000218481
0.00020535
1.37522e-09
5.97557e-08
2.68327e-07
3.05241e-06
1.64047e-05
5.55743e-05
0.000137619
0.000270976
0.000452403
0.000670636
0.000908032
0.00115579
0.00119752
0.00100671
0.000807021
0.0005855
0.000349957
0.000134236
8.28201e-05
0.000128159
0.000120921
0.000113001
0.000126556
0.000147435
0.000157363
0.000155854
0.00015485
0.000160718
0.000168771
0.000173441
0.000175791
0.000179596
0.000185544
0.00019178
0.000196941
0.000200648
0.000202811
0.000203819
0.000204904
0.000206661
0.000208099
0.000207761
0.000208787
0.00019842
2.93575e-10
1.54267e-08
4.29919e-07
3.11583e-06
1.29339e-05
3.80489e-05
8.6758e-05
0.000162215
0.000259994
0.000369809
0.000478757
0.000574925
0.0006431
0.00063859
0.000426418
0.00023328
8.28397e-05
8.28557e-05
0.000105987
0.000112993
0.000129039
0.000148974
0.000159592
0.000160141
0.00016023
0.000165586
0.000172843
0.000177233
0.000179213
0.000181863
0.000185931
0.000190175
0.000194179
0.000198412
0.000202636
0.000205769
0.000207062
0.000206862
0.000206436
0.000205843
0.000204967
0.000203746
0.000201888
0.000194548
3.62677e-11
1.43261e-08
2.09924e-07
1.2196e-06
4.40672e-06
1.16259e-05
2.42174e-05
4.19133e-05
6.26351e-05
8.32177e-05
0.000100398
0.000111549
0.000114759
0.000107038
8.15005e-05
5.12433e-05
7.44835e-05
0.000111644
0.000133178
0.000152931
0.00016439
0.000167504
0.000169433
0.000174675
0.000181067
0.000185097
0.00018719
0.000189802
0.000193344
0.000196445
0.000198719
0.000201149
0.000204406
0.000208101
0.000211367
0.000213437
0.000213854
0.000212879
0.000211149
0.000208563
0.000206103
0.000203888
0.00019948
0.000196956
5.13152e-10
8.17092e-08
9.59584e-07
4.83594e-06
1.52881e-05
3.51368e-05
6.39326e-05
9.79968e-05
0.000132575
0.000163586
0.000187772
0.000201574
0.000196752
0.000154795
8.10884e-05
0.000101144
0.000140888
0.000163806
0.00017561
0.000180173
0.00018319
0.000188047
0.00019335
0.000196715
0.000198657
0.00020114
0.00020446
0.000207393
0.000209396
0.000211083
0.000213013
0.000215176
0.0002175
0.000219982
0.000222278
0.000223703
0.000223677
0.000222236
0.000219489
0.000215644
0.000212629
0.000209798
0.000203612
0.000208223
2.89044e-09
3.43044e-07
3.44524e-06
1.52075e-05
4.2144e-05
8.55849e-05
0.000140697
0.000200456
0.000257923
0.000305446
0.000332953
0.000328425
0.000195154
7.61615e-05
0.00012234
0.000161956
0.000178261
0.000187826
0.000195423
0.000202471
0.000208201
0.000211664
0.000213727
0.000216001
0.00021879
0.00022131
0.000223273
0.00022512
0.000227049
0.000228749
0.000230067
0.000231278
0.000232701
0.000234339
0.000235828
0.000236678
0.000236472
0.000234903
0.000231725
0.000227961
0.000225739
0.00022326
0.000217561
0.000231658
7.58403e-09
7.66328e-07
6.83743e-06
2.70391e-05
6.76114e-05
0.000125977
0.000193736
0.000261283
0.00031842
0.000353072
0.000354984
0.000210708
6.60933e-05
0.000115319
0.000160415
0.000183773
0.000201336
0.000214107
0.000222403
0.000227198
0.000230109
0.000232623
0.000235113
0.000237215
0.00023893
0.000240723
0.000242768
0.000244749
0.000246369
0.00024763
0.000248636
0.000249445
0.000250194
0.000251053
0.000251953
0.000252592
0.000252697
0.000251572
0.000249014
0.000246931
0.000246672
0.000245982
0.00024566
0.000273101
1.72329e-10
1.28155e-08
1.84339e-07
1.04276e-06
3.51278e-06
8.59816e-06
1.68033e-05
2.7503e-05
3.8218e-05
4.34536e-05
3.60059e-05
5.70988e-05
0.000157243
0.00032829
0.000560177
0.000693286
0.000832116
0.000972939
0.00111308
0.00125035
0.00138075
0.00149954
0.00160076
0.00167622
0.00171554
0.00170645
0.00163495
0.00148627
0.00124579
0.000910643
0.000492876
0.00011049
0.00035176
0.000450128
0.000409879
0.000351558
0.000340743
0.000365812
0.000388268
0.00039047
0.000404637
0.000391733
0.000425429
0.000405123
9.63994e-10
7.26124e-08
5.6454e-07
2.20387e-06
5.92596e-06
1.22631e-05
2.028e-05
2.60982e-05
1.95881e-05
1.80349e-05
9.44944e-05
0.000221139
0.000422509
0.00055225
0.000681601
0.000819627
0.000960292
0.00109899
0.00123149
0.00135312
0.00145794
0.00153897
0.00158742
0.00159318
0.00154489
0.00143008
0.00123643
0.000955157
0.000595844
0.000199542
0.00016195
0.000326701
0.000315287
0.000254903
0.000229477
0.000257815
0.000298388
0.000318841
0.000320874
0.000321925
0.000327545
0.000329247
0.00034763
0.000311606
2.99455e-09
1.9961e-07
1.27894e-06
3.95614e-06
8.19133e-06
1.20481e-05
9.95033e-06
2.18037e-05
8.5616e-05
0.000198947
0.000367366
0.000587555
0.000684667
0.000801362
0.000921081
0.00104032
0.00115564
0.0012624
0.00135531
0.00142779
0.00147217
0.00147974
0.00144089
0.00134525
0.00118286
0.000945025
0.000634117
0.000279061
5.4526e-05
0.000247675
0.000262462
0.000201164
0.000161127
0.000177935
0.000224195
0.000255176
0.000264117
0.000264894
0.000268684
0.00027357
0.000284243
0.000288621
0.000296878
0.000288464
4.24159e-09
2.811e-07
1.72455e-06
4.7589e-06
7.39966e-06
2.38718e-06
2.92498e-05
0.000104018
0.00023268
0.000418286
0.000673908
0.000883816
0.000976132
0.00107932
0.00117687
0.00126511
0.00134005
0.00139639
0.00142772
0.00142667
0.00138518
0.00129466
0.00114689
0.000935184
0.000660092
0.000339214
5.14238e-05
0.000195339
0.000235559
0.000179905
0.000128516
0.000130887
0.000172583
0.000206862
0.000217871
0.000220236
0.000226322
0.000234456
0.000241362
0.00024568
0.000256872
0.000259136
0.000275817
0.000268033
5.22569e-09
3.39634e-07
1.99399e-06
4.84968e-06
3.92014e-06
1.65489e-05
7.99864e-05
0.000202856
0.000388809
0.000637503
0.000970741
0.00113788
0.00121556
0.00129545
0.00135998
0.00140441
0.00142422
0.00141381
0.00136671
0.0012761
0.00113529
0.000939104
0.000687544
0.000394261
0.000108388
0.000143861
0.000210047
0.000168525
0.00011368
0.000104704
0.000138723
0.000172395
0.000183395
0.000183922
0.000190693
0.000203812
0.000214495
0.000219815
0.000223269
0.000228468
0.000239841
0.000245511
0.00026319
0.000251625
5.5096e-09
3.49444e-07
1.96139e-06
4.05996e-06
2.97148e-06
3.79761e-05
0.000131122
0.000294571
0.000527057
0.000823215
0.00120783
0.00133826
0.00137947
0.00141707
0.00142962
0.00141137
0.00135796
0.00126482
0.00112747
0.000942581
0.000709854
0.000439843
0.000168095
9.78146e-05
0.000182295
0.000159149
0.000108548
9.40377e-05
0.000121012
0.000152523
0.000163641
0.000162026
0.000165868
0.000178942
0.000192611
0.000201163
0.000205674
0.000209096
0.000213541
0.000219956
0.000231098
0.000236232
0.000250396
0.00023426
4.60215e-09
2.83604e-07
1.50009e-06
2.5274e-06
9.08924e-06
5.41172e-05
0.000163128
0.000346986
0.000601496
0.000916253
0.00130454
0.00146894
0.00144573
0.00142206
0.00136542
0.0012692
0.00113078
0.000949745
0.000728564
0.00047664
0.000220598
7.79873e-05
0.000156208
0.000153652
0.000112599
9.70529e-05
0.000117904
0.000146016
0.000157232
0.000154978
0.000155875
0.000165776
0.000177644
0.000185959
0.000191952
0.000197681
0.000202653
0.000206407
0.000210128
0.000216126
0.000224172
0.000227934
0.000235589
0.000219272
3.02959e-09
1.72562e-07
7.56038e-07
1.80075e-06
1.46848e-05
6.15106e-05
0.000166454
0.00034003
0.000578759
0.000871122
0.00120576
0.00149095
0.00138766
0.00128717
0.00115272
0.000977954
0.000764343
0.000521392
0.000272546
8.71166e-05
0.000127924
0.000147587
0.000120284
0.000106412
0.000122213
0.000146194
0.000156769
0.000154672
0.000154085
0.000161472
0.000170998
0.000177114
0.000181513
0.00018755
0.00019478
0.00020068
0.000204226
0.000206392
0.000209173
0.000213522
0.000218492
0.000219923
0.000223183
0.000210849
1.38938e-09
6.04693e-08
2.684e-07
3.05635e-06
1.64512e-05
5.5749e-05
0.000138031
0.000271711
0.00045352
0.000672189
0.000910059
0.00115864
0.00119687
0.00100704
0.00080814
0.000587371
0.000352357
0.000136601
8.23443e-05
0.00012805
0.000121483
0.000113817
0.000127407
0.000148311
0.000158332
0.000156995
0.000156191
0.000162234
0.00017045
0.000175303
0.000177857
0.000181877
0.000188051
0.000194556
0.000200047
0.00020416
0.000206788
0.000208298
0.000209905
0.00021223
0.000214275
0.000214566
0.000215957
0.000206676
3.01207e-10
1.53125e-08
4.3143e-07
3.13442e-06
1.30228e-05
3.83238e-05
8.73922e-05
0.000163399
0.000261902
0.000372598
0.000482577
0.000579923
0.000649221
0.000640578
0.000429239
0.000236275
8.48244e-05
8.27282e-05
0.000106447
0.000113762
0.000129903
0.000149905
0.000160663
0.000161396
0.000161646
0.000167137
0.000174542
0.000179117
0.000181323
0.000184219
0.000188539
0.000193051
0.000197355
0.000201952
0.00020662
0.000210306
0.000212249
0.000212756
0.000213098
0.000213356
0.000213404
0.000213165
0.000212161
0.000206168
3.65927e-11
1.48556e-08
2.18319e-07
1.26962e-06
4.58972e-06
1.21128e-05
2.52386e-05
4.36921e-05
6.5316e-05
8.68258e-05
0.000104834
0.000116613
0.000120192
0.000112488
8.61993e-05
5.43243e-05
7.77387e-05
0.000112247
0.000133888
0.000153698
0.000165449
0.000168848
0.000170877
0.000176234
0.000182773
0.000186971
0.000189254
0.000192088
0.000195891
0.000199285
0.000201873
0.000204643
0.000208283
0.000212449
0.0002163
0.000219093
0.000220377
0.000220348
0.000219677
0.000218269
0.000217072
0.000216213
0.000213164
0.000212041
4.96467e-10
7.94837e-08
9.35246e-07
4.71945e-06
1.49399e-05
3.43881e-05
6.2666e-05
9.61954e-05
0.000130315
0.000161008
0.00018507
0.00019904
0.000194929
0.000154544
8.30533e-05
0.000101228
0.000141178
0.000164424
0.000176531
0.000181351
0.000184521
0.000189519
0.000194964
0.000198492
0.000200614
0.000203291
0.000206834
0.000210029
0.000212329
0.000214345
0.000216643
0.000219225
0.000222027
0.000225091
0.000228116
0.000230428
0.000231481
0.000231242
0.000229844
0.000227468
0.00022592
0.00022466
0.000220155
0.000225814
2.83291e-09
3.37213e-07
3.39239e-06
1.49971e-05
4.16288e-05
8.46749e-05
0.000139401
0.00019886
0.000256185
0.000303826
0.00033187
0.000328593
0.00019895
7.80978e-05
0.000121693
0.000162141
0.00017892
0.000188752
0.000196533
0.000203732
0.000209623
0.000213263
0.000215501
0.000217936
0.000220898
0.000223627
0.000225834
0.000227958
0.000230207
0.000232275
0.000234018
0.000235716
0.000237688
0.000239996
0.000242327
0.000244174
0.000245178
0.00024504
0.000243395
0.000241154
0.000240298
0.000239071
0.000234258
0.000248112
7.4613e-09
7.55618e-07
6.75325e-06
2.6752e-05
6.70118e-05
0.000125067
0.000192625
0.000260168
0.00031759
0.000352942
0.000356209
0.000215197
6.91022e-05
0.000114399
0.000160522
0.000184248
0.000202021
0.000215002
0.000223502
0.000228487
0.000231567
0.000234235
0.000236881
0.000239155
0.000241058
0.000243042
0.000245303
0.000247558
0.000249515
0.000251158
0.000252602
0.000253931
0.00025525
0.000256782
0.000258533
0.000260199
0.000261449
0.000261731
0.000260646
0.000259689
0.000260361
0.000259952
0.000257594
0.000280594
1.72392e-10
1.28159e-08
1.84359e-07
1.04295e-06
3.5136e-06
8.60044e-06
1.68083e-05
2.75122e-05
3.82329e-05