/*--------------------------------*- C++ -*----------------------------------*\
| =========                 |                                                 |
| \\      /  F ield         | OpenFOAM: The Open Source CFD Toolbox           |
|  \\    /   O peration     | Version:  2312                                  |
|   \\  /    A nd           | Website:  www.openfoam.com                      |
|    \\/     M anipulation  |                                                 |
\*---------------------------------------------------------------------------*/
FoamFile
{
    version     2.0;
    format      ascii;
    arch        "LSB;label=32;scalar=64";
    class       volScalarField;
    location    "1.5";
    object      p;
}
// * * * * * * * * * * * * * * * * * * * * * * * * * * * * * * * * * * * * * //

dimensions      [0 2 -2 0 0 0 0];

internalField   nonuniform List<scalar> 
326144
(
-0.939314
-0.939753
-0.940198
-0.940611
-0.941051
-0.941511
-0.941903
-0.942041
-0.9417
-0.940649
-0.938693
-0.935615
-0.931139
-0.925146
-0.918049
-0.91062
-0.903302
-0.896405
-0.890419
-0.885847
-0.883118
-0.882445
-0.884189
-0.888353
-0.894683
-0.902671
-0.91154
-0.920251
-0.927608
-0.932324
-0.93334
-0.930118
-0.923331
-0.913691
-0.901012
-0.885537
-0.867699
-0.847835
-0.826344
-0.803725
-0.780235
-0.75654
-0.732368
-0.708417
-0.958346
-0.958679
-0.959011
-0.959315
-0.959662
-0.960085
-0.960542
-0.960939
-0.961192
-0.9612
-0.960741
-0.959572
-0.95763
-0.955072
-0.952007
-0.948455
-0.944581
-0.940624
-0.936895
-0.933714
-0.931361
-0.930023
-0.929809
-0.930705
-0.932528
-0.934917
-0.937357
-0.939178
-0.939669
-0.93823
-0.934718
-0.929686
-0.922965
-0.914032
-0.902965
-0.889914
-0.874999
-0.858438
-0.840506
-0.821465
-0.801579
-0.781217
-0.760527
-0.740619
-0.999984
-1.00013
-1.00025
-1.00032
-1.00037
-1.00044
-1.00053
-1.00065
-1.00069
-1.00047
-0.999844
-0.998895
-0.997846
-0.996569
-0.99489
-0.992838
-0.990505
-0.988004
-0.985437
-0.982908
-0.980511
-0.978304
-0.976296
-0.974429
-0.972567
-0.970494
-0.967897
-0.964491
-0.960113
-0.955127
-0.949684
-0.94315
-0.935238
-0.925979
-0.91533
-0.903261
-0.889836
-0.875171
-0.859381
-0.842649
-0.825096
-0.807058
-0.78864
-0.770239
-1.04428
-1.04432
-1.04426
-1.04404
-1.04369
-1.04325
-1.04273
-1.04212
-1.04127
-1.04
-1.03833
-1.03673
-1.03556
-1.03458
-1.03343
-1.03206
-1.03051
-1.02877
-1.02682
-1.02463
-1.02217
-1.01939
-1.01621
-1.01257
-1.00834
-1.00342
-0.997775
-0.991722
-0.985646
-0.979198
-0.971997
-0.96401
-0.955201
-0.945456
-0.934704
-0.922943
-0.910196
-0.896505
-0.88193
-0.866584
-0.850535
-0.834067
-0.817122
-0.80022
-1.09163
-1.0916
-1.09142
-1.09104
-1.09048
-1.08976
-1.0889
-1.08774
-1.08607
-1.08363
-1.08076
-1.07851
-1.07714
-1.07602
-1.07473
-1.07324
-1.07156
-1.06965
-1.06743
-1.06482
-1.06172
-1.05803
-1.05364
-1.04848
-1.0425
-1.03597
-1.02932
-1.02247
-1.01513
-1.00725
-0.998848
-0.989873
-0.98023
-0.969878
-0.958801
-0.946986
-0.934434
-0.921166
-0.907219
-0.892653
-0.877526
-0.862021
-0.846093
-0.830178
-1.14626
-1.14615
-1.14589
-1.14549
-1.14497
-1.14432
-1.14341
-1.14201
-1.13972
-1.13615
-1.13193
-1.12883
-1.12715
-1.12568
-1.12379
-1.1215
-1.11884
-1.11579
-1.11228
-1.10826
-1.10363
-1.09829
-1.09218
-1.08543
-1.07844
-1.07126
-1.06366
-1.05558
-1.04708
-1.03817
-1.02878
-1.01889
-1.00847
-0.997522
-0.986012
-0.973939
-0.96131
-0.948141
-0.934455
-0.920289
-0.905693
-0.890792
-0.87556
-0.860337
-1.20385
-1.20367
-1.20339
-1.20307
-1.20273
-1.20231
-1.20157
-1.20007
-1.19725
-1.19266
-1.18693
-1.18248
-1.18026
-1.17849
-1.17596
-1.17265
-1.1687
-1.16413
-1.15894
-1.1531
-1.14659
-1.13948
-1.13206
-1.12446
-1.11653
-1.10817
-1.09943
-1.09034
-1.08087
-1.07098
-1.06069
-1.04997
-1.03883
-1.02725
-1.01523
-1.00279
-0.989919
-0.976647
-0.96299
-0.948976
-0.934657
-0.920101
-0.905318
-0.890557
-1.26014
-1.2599
-1.25961
-1.25935
-1.25918
-1.259
-1.25847
-1.25696
-1.25384
-1.24866
-1.24163
-1.23501
-1.23127
-1.22902
-1.226
-1.22178
-1.2166
-1.21064
-1.20396
-1.19666
-1.18897
-1.18105
-1.17284
-1.16424
-1.15527
-1.14597
-1.13631
-1.12627
-1.11586
-1.10508
-1.09394
-1.08242
-1.07053
-1.05829
-1.04571
-1.0328
-1.01957
-1.00606
-0.992274
-0.978246
-0.964017
-0.949624
-0.935113
-0.92063
-1.31422
-1.31392
-1.31357
-1.31327
-1.31308
-1.31291
-1.31236
-1.31077
-1.30751
-1.30228
-1.29524
-1.28743
-1.281
-1.27677
-1.27299
-1.2682
-1.26224
-1.2554
-1.24796
-1.24013
-1.23193
-1.2233
-1.21425
-1.2048
-1.19496
-1.18473
-1.1741
-1.16311
-1.15175
-1.14005
-1.128
-1.11563
-1.10297
-1.09001
-1.07679
-1.06334
-1.04968
-1.03582
-1.02179
-1.00763
-0.993358
-0.978997
-0.96462
-0.950283
-1.37083
-1.37053
-1.37014
-1.36978
-1.36948
-1.3691
-1.36824
-1.36636
-1.36301
-1.35807
-1.35182
-1.34472
-1.33741
-1.33065
-1.32456
-1.3184
-1.31153
-1.30389
-1.29564
-1.28686
-1.27757
-1.26782
-1.25763
-1.24701
-1.23597
-1.22455
-1.21276
-1.20062
-1.18815
-1.17538
-1.16234
-1.14904
-1.13551
-1.12177
-1.10786
-1.09381
-1.07963
-1.06537
-1.05103
-1.03665
-1.02224
-1.00783
-0.993493
-0.979193
-1.43684
-1.43654
-1.43612
-1.43566
-1.43512
-1.43435
-1.43309
-1.43097
-1.42764
-1.42299
-1.41709
-1.41017
-1.40249
-1.39425
-1.38566
-1.37677
-1.36753
-1.3578
-1.34756
-1.33688
-1.32579
-1.31429
-1.30242
-1.29019
-1.27761
-1.26472
-1.25153
-1.23807
-1.22436
-1.21042
-1.19628
-1.18198
-1.16752
-1.15296
-1.13831
-1.12361
-1.10889
-1.09417
-1.07948
-1.06483
-1.05022
-1.03571
-1.02134
-1.00699
-1.51314
-1.51277
-1.51224
-1.51149
-1.51036
-1.50861
-1.50605
-1.50253
-1.49793
-1.49219
-1.48526
-1.47718
-1.46803
-1.458
-1.44726
-1.43592
-1.42413
-1.412
-1.39956
-1.38679
-1.3737
-1.36031
-1.34663
-1.33268
-1.31847
-1.30401
-1.28935
-1.27449
-1.25947
-1.24432
-1.22905
-1.21371
-1.19832
-1.18292
-1.16752
-1.15217
-1.1369
-1.12172
-1.10665
-1.09171
-1.07688
-1.06223
-1.04775
-1.03328
-1.59272
-1.59229
-1.59159
-1.59044
-1.58852
-1.58552
-1.58126
-1.57569
-1.5688
-1.56064
-1.5513
-1.5409
-1.52959
-1.51743
-1.50454
-1.49115
-1.4774
-1.46333
-1.44894
-1.43426
-1.41931
-1.4041
-1.38867
-1.37302
-1.35719
-1.3412
-1.32507
-1.30884
-1.29253
-1.27619
-1.25983
-1.24349
-1.2272
-1.211
-1.1949
-1.17894
-1.16314
-1.14753
-1.13211
-1.11687
-1.10182
-1.087
-1.07232
-1.05763
-1.66849
-1.66804
-1.66713
-1.66544
-1.6625
-1.658
-1.65186
-1.64412
-1.63493
-1.62441
-1.61273
-1.60006
-1.58651
-1.5722
-1.55734
-1.54207
-1.52644
-1.51049
-1.49426
-1.47778
-1.46107
-1.44416
-1.42707
-1.40985
-1.39251
-1.37508
-1.35761
-1.34011
-1.32263
-1.3052
-1.28785
-1.27061
-1.25352
-1.23661
-1.21989
-1.20341
-1.18717
-1.17119
-1.15545
-1.13995
-1.12472
-1.10975
-1.09478
-1.07979
-0.939354
-0.939793
-0.940237
-0.94065
-0.941089
-0.941548
-0.941937
-0.942072
-0.941726
-0.940669
-0.938706
-0.935618
-0.931129
-0.925125
-0.918023
-0.910588
-0.90326
-0.896354
-0.89036
-0.885782
-0.883051
-0.882364
-0.884099
-0.888256
-0.894585
-0.902574
-0.911448
-0.920168
-0.927538
-0.932269
-0.933301
-0.930093
-0.92331
-0.913672
-0.900997
-0.885525
-0.867688
-0.847827
-0.82634
-0.803724
-0.780238
-0.756546
-0.73238
-0.708437
-0.958291
-0.958625
-0.958957
-0.959261
-0.959608
-0.96003
-0.960487
-0.960883
-0.961134
-0.96114
-0.960679
-0.959508
-0.957562
-0.954997
-0.951924
-0.948366
-0.944488
-0.940527
-0.936795
-0.93361
-0.931255
-0.929914
-0.929701
-0.930598
-0.932424
-0.934818
-0.937267
-0.939099
-0.939602
-0.938178
-0.934675
-0.929648
-0.922932
-0.914004
-0.90294
-0.889892
-0.874982
-0.858424
-0.840496
-0.821459
-0.801578
-0.781219
-0.760535
-0.740629
-0.999897
-1.00004
-1.00017
-1.00023
-1.00029
-1.00036
-1.00045
-1.00057
-1.00061
-1.0004
-0.999767
-0.99882
-0.997771
-0.996493
-0.994812
-0.992758
-0.990422
-0.987918
-0.985349
-0.982817
-0.980418
-0.978212
-0.976204
-0.97434
-0.972482
-0.970415
-0.967827
-0.964431
-0.960062
-0.955079
-0.949639
-0.943111
-0.935203
-0.925947
-0.915302
-0.903237
-0.889815
-0.875154
-0.859369
-0.842642
-0.825094
-0.807061
-0.788651
-0.770255
-1.0442
-1.04424
-1.04418
-1.04396
-1.04361
-1.04317
-1.04265
-1.04204
-1.0412
-1.03993
-1.03826
-1.03667
-1.0355
-1.03452
-1.03337
-1.032
-1.03045
-1.0287
-1.02675
-1.02457
-1.02211
-1.01932
-1.01615
-1.01251
-1.00828
-1.00337
-0.997729
-0.991677
-0.985601
-0.979155
-0.971958
-0.963973
-0.955166
-0.945424
-0.934675
-0.922917
-0.910174
-0.896487
-0.881917
-0.866577
-0.850535
-0.834073
-0.817137
-0.800242
-1.09153
-1.09151
-1.09132
-1.09095
-1.09039
-1.08967
-1.0888
-1.08764
-1.08597
-1.08353
-1.08067
-1.07843
-1.07706
-1.07594
-1.07465
-1.07317
-1.07149
-1.06958
-1.06736
-1.06476
-1.06166
-1.05798
-1.05359
-1.04843
-1.04246
-1.03593
-1.02928
-1.02243
-1.01509
-1.00721
-0.998811
-0.989838
-0.980197
-0.969847
-0.958773
-0.946961
-0.934414
-0.92115
-0.907209
-0.89265
-0.877531
-0.862034
-0.846118
-0.830211
-1.14614
-1.14603
-1.14577
-1.14537
-1.14485
-1.14419
-1.14329
-1.14189
-1.13959
-1.13603
-1.13181
-1.12873
-1.12705
-1.12557
-1.12369
-1.12141
-1.11875
-1.11571
-1.11221
-1.1082
-1.10357
-1.09824
-1.09213
-1.0854
-1.0784
-1.07122
-1.06362
-1.05554
-1.04705
-1.03813
-1.02875
-1.01886
-1.00845
-0.997495
-0.985987
-0.973918
-0.961294
-0.948131
-0.934452
-0.920295
-0.905709
-0.890819
-0.875601
-0.860391
-1.20372
-1.20354
-1.20326
-1.20294
-1.20259
-1.20217
-1.20143
-1.19993
-1.19711
-1.19253
-1.18681
-1.18237
-1.18016
-1.17839
-1.17587
-1.17257
-1.16862
-1.16406
-1.15888
-1.15305
-1.14655
-1.13945
-1.13202
-1.12442
-1.11649
-1.10814
-1.0994
-1.09031
-1.08084
-1.07095
-1.06066
-1.04995
-1.03881
-1.02723
-1.01522
-1.00277
-0.989913
-0.976648
-0.963001
-0.948999
-0.934693
-0.920153
-0.90539
-0.890649
-1.26003
-1.2598
-1.2595
-1.25925
-1.25907
-1.2589
-1.25835
-1.25685
-1.25373
-1.24856
-1.24154
-1.23494
-1.23122
-1.22896
-1.22594
-1.22174
-1.21656
-1.2106
-1.20393
-1.19664
-1.18895
-1.18103
-1.17282
-1.16422
-1.15525
-1.14595
-1.13628
-1.12625
-1.11584
-1.10506
-1.09392
-1.0824
-1.07052
-1.05828
-1.0457
-1.0328
-1.01959
-1.00608
-0.992311
-0.9783
-0.964091
-0.949722
-0.935238
-0.920787
-1.31417
-1.31388
-1.31352
-1.31322
-1.31303
-1.31286
-1.3123
-1.31071
-1.30746
-1.30223
-1.2952
-1.2874
-1.28099
-1.27678
-1.27299
-1.26821
-1.26225
-1.25541
-1.24797
-1.24013
-1.23193
-1.2233
-1.21424
-1.20479
-1.19495
-1.18472
-1.17409
-1.1631
-1.15175
-1.14004
-1.128
-1.11563
-1.10297
-1.09002
-1.07681
-1.06337
-1.04972
-1.03588
-1.02188
-1.00774
-0.993498
-0.979176
-0.964842
-0.950557
-1.3708
-1.3705
-1.37011
-1.36975
-1.36945
-1.36907
-1.36821
-1.36634
-1.36299
-1.35805
-1.3518
-1.3447
-1.3374
-1.33064
-1.32457
-1.31842
-1.31155
-1.30391
-1.29566
-1.28687
-1.27758
-1.26783
-1.25764
-1.24702
-1.23598
-1.22455
-1.21276
-1.20063
-1.18816
-1.1754
-1.16236
-1.14907
-1.13554
-1.12182
-1.10792
-1.09389
-1.07973
-1.06549
-1.05119
-1.03685
-1.0225
-1.00815
-0.993883
-0.97967
-1.43681
-1.43651
-1.4361
-1.43564
-1.43509
-1.43433
-1.43307
-1.43094
-1.42762
-1.42297
-1.41707
-1.41015
-1.40248
-1.39425
-1.38566
-1.37679
-1.36755
-1.35782
-1.34759
-1.33691
-1.32581
-1.31432
-1.30245
-1.29022
-1.27765
-1.26476
-1.25157
-1.23811
-1.2244
-1.21047
-1.19634
-1.18205
-1.16761
-1.15306
-1.13844
-1.12377
-1.10908
-1.09441
-1.07977
-1.06519
-1.05067
-1.03626
-1.02201
-1.00782
-1.51309
-1.51272
-1.51219
-1.51145
-1.51032
-1.50858
-1.50603
-1.50252
-1.49793
-1.49219
-1.48527
-1.47719
-1.46806
-1.45803
-1.4473
-1.43597
-1.42418
-1.41206
-1.39961
-1.38685
-1.37377
-1.36038
-1.3467
-1.33275
-1.31854
-1.30409
-1.28944
-1.27459
-1.25958
-1.24443
-1.22918
-1.21386
-1.19849
-1.18311
-1.16776
-1.15245
-1.13723
-1.12212
-1.10715
-1.09231
-1.07763
-1.06316
-1.04889
-1.03469
-1.59265
-1.59223
-1.59153
-1.59039
-1.58848
-1.58549
-1.58125
-1.57569
-1.56882
-1.56068
-1.55135
-1.54097
-1.52967
-1.51752
-1.50464
-1.49126
-1.47751
-1.46344
-1.44905
-1.43438
-1.41943
-1.40423
-1.3888
-1.37316
-1.35733
-1.34135
-1.32523
-1.30901
-1.29272
-1.27639
-1.26006
-1.24375
-1.22749
-1.21133
-1.19529
-1.1794
-1.16369
-1.14819
-1.13292
-1.11786
-1.10305
-1.08854
-1.07424
-1.06004
-1.66848
-1.66802
-1.66712
-1.66543
-1.66251
-1.65803
-1.65191
-1.64419
-1.63502
-1.62452
-1.61286
-1.60021
-1.58667
-1.57237
-1.55752
-1.54225
-1.52663
-1.51068
-1.49446
-1.47798
-1.46127
-1.44437
-1.42729
-1.41008
-1.39275
-1.37533
-1.35787
-1.3404
-1.32294
-1.30553
-1.28822
-1.27103
-1.25399
-1.23714
-1.22052
-1.20414
-1.18804
-1.17223
-1.15673
-1.14153
-1.12668
-1.11221
-1.09791
-1.08375
-0.93934
-0.939778
-0.940223
-0.940636
-0.941075
-0.941533
-0.941921
-0.942055
-0.941707
-0.940647
-0.938681
-0.935589
-0.931094
-0.925086
-0.91798
-0.910542
-0.903209
-0.896299
-0.890301
-0.885721
-0.882989
-0.882296
-0.884025
-0.888178
-0.894504
-0.902491
-0.911364
-0.920085
-0.927457
-0.932193
-0.93323
-0.930028
-0.92325
-0.913617
-0.900945
-0.885478
-0.867647
-0.847791
-0.82631
-0.803701
-0.780224
-0.75654
-0.732383
-0.708447
-0.958237
-0.958571
-0.958904
-0.959208
-0.959554
-0.959977
-0.960434
-0.960829
-0.96108
-0.961085
-0.960622
-0.95945
-0.957503
-0.954936
-0.951859
-0.948298
-0.944417
-0.940454
-0.936719
-0.933532
-0.931173
-0.92983
-0.929614
-0.930509
-0.932334
-0.934729
-0.937179
-0.939014
-0.939523
-0.938105
-0.934608
-0.929585
-0.922873
-0.913948
-0.902889
-0.889845
-0.874939
-0.858386
-0.840465
-0.821435
-0.801562
-0.781212
-0.760538
-0.74064
-0.999829
-0.999976
-1.0001
-1.00017
-1.00022
-1.00029
-1.00039
-1.0005
-1.00055
-1.00033
-0.999706
-0.99876
-0.997712
-0.996434
-0.994753
-0.992697
-0.99036
-0.987854
-0.985282
-0.982749
-0.980347
-0.978137
-0.976127
-0.974261
-0.972403
-0.970337
-0.967751
-0.964359
-0.959995
-0.955014
-0.949576
-0.94305
-0.935145
-0.925892
-0.915249
-0.903188
-0.88977
-0.875115
-0.859336
-0.842617
-0.825079
-0.807056
-0.788657
-0.770272
-1.04413
-1.04417
-1.0441
-1.04389
-1.04354
-1.0431
-1.04258
-1.04197
-1.04113
-1.03986
-1.0382
-1.03661
-1.03545
-1.03446
-1.03331
-1.03195
-1.03039
-1.02865
-1.0267
-1.02451
-1.02205
-1.01926
-1.01608
-1.01245
-1.00822
-1.00331
-0.997667
-0.991616
-0.985539
-0.979094
-0.971897
-0.963913
-0.955108
-0.945367
-0.934621
-0.922867
-0.910129
-0.896447
-0.881885
-0.866554
-0.850522
-0.834072
-0.81715
-0.800267
-1.09143
-1.0914
-1.09122
-1.09084
-1.09028
-1.08956
-1.08869
-1.08753
-1.08587
-1.08344
-1.08058
-1.07834
-1.07697
-1.07586
-1.07458
-1.07309
-1.07142
-1.06951
-1.0673
-1.06469
-1.06159
-1.05791
-1.05353
-1.04837
-1.04241
-1.03587
-1.02922
-1.02237
-1.01503
-1.00715
-0.99875
-0.989777
-0.980138
-0.969789
-0.958718
-0.946911
-0.934368
-0.921112
-0.907179
-0.892632
-0.877525
-0.862043
-0.846143
-0.830254
-1.14599
-1.14587
-1.14562
-1.14522
-1.1447
-1.14403
-1.14313
-1.14173
-1.13944
-1.13588
-1.13168
-1.12859
-1.12692
-1.12545
-1.12358
-1.1213
-1.11865
-1.11561
-1.11212
-1.10812
-1.1035
-1.09817
-1.09207
-1.08534
-1.07834
-1.07116
-1.06356
-1.05548
-1.04698
-1.03807
-1.02869
-1.0188
-1.00839
-0.997438
-0.985935
-0.97387
-0.961253
-0.948099
-0.934431
-0.920288
-0.905717
-0.890846
-0.875649
-0.860464
-1.20354
-1.20336
-1.20308
-1.20276
-1.20241
-1.20199
-1.20125
-1.19974
-1.19693
-1.19236
-1.18665
-1.18223
-1.18003
-1.17825
-1.17574
-1.17245
-1.16851
-1.16396
-1.15879
-1.15297
-1.14648
-1.13939
-1.13196
-1.12437
-1.11644
-1.10808
-1.09935
-1.09025
-1.08078
-1.07089
-1.0606
-1.04989
-1.03875
-1.02718
-1.01517
-1.00273
-0.989882
-0.976629
-0.962997
-0.949013
-0.934728
-0.920214
-0.905479
-0.890771
-1.2599
-1.25966
-1.25937
-1.25911
-1.25893
-1.25875
-1.25821
-1.2567
-1.25358
-1.24842
-1.24143
-1.23486
-1.23115
-1.2289
-1.22588
-1.22167
-1.21651
-1.21055
-1.20389
-1.19661
-1.18892
-1.181
-1.17278
-1.16418
-1.15521
-1.1459
-1.13624
-1.1262
-1.11579
-1.10501
-1.09387
-1.08236
-1.07048
-1.05825
-1.04567
-1.03278
-1.01958
-1.00609
-0.992339
-0.978353
-0.964173
-0.94984
-0.935397
-0.920994
-1.31413
-1.31383
-1.31348
-1.31318
-1.31299
-1.31281
-1.31226
-1.31067
-1.30741
-1.30219
-1.29517
-1.28738
-1.281
-1.2768
-1.27302
-1.26823
-1.26228
-1.25543
-1.24798
-1.24014
-1.23193
-1.22329
-1.21423
-1.20478
-1.19493
-1.18469
-1.17407
-1.16307
-1.15171
-1.14001
-1.12797
-1.11561
-1.10295
-1.09001
-1.07681
-1.06338
-1.04975
-1.03594
-1.02196
-1.00786
-0.993663
-0.979392
-0.965118
-0.950905
-1.3708
-1.3705
-1.37012
-1.36976
-1.36946
-1.36908
-1.36823
-1.36635
-1.363
-1.35807
-1.35182
-1.34473
-1.33743
-1.33068
-1.32462
-1.31848
-1.31161
-1.30396
-1.2957
-1.2869
-1.27761
-1.26785
-1.25765
-1.24703
-1.23599
-1.22456
-1.21276
-1.20062
-1.18816
-1.1754
-1.16237
-1.14908
-1.13557
-1.12185
-1.10798
-1.09396
-1.07984
-1.06563
-1.05137
-1.03709
-1.0228
-1.00853
-0.994352
-0.98025
-1.43685
-1.43654
-1.43613
-1.43567
-1.43513
-1.43437
-1.43311
-1.43098
-1.42765
-1.423
-1.41711
-1.41019
-1.40252
-1.3943
-1.38571
-1.37685
-1.36761
-1.35788
-1.34764
-1.33696
-1.32587
-1.31437
-1.3025
-1.29026
-1.27769
-1.2648
-1.25161
-1.23815
-1.22445
-1.21053
-1.19641
-1.18212
-1.1677
-1.15318
-1.13858
-1.12394
-1.1093
-1.09467
-1.0801
-1.0656
-1.05119
-1.0369
-1.02279
-1.00877
-1.51311
-1.51274
-1.51221
-1.51148
-1.51036
-1.50863
-1.50609
-1.50258
-1.498
-1.49226
-1.48535
-1.47728
-1.46815
-1.45814
-1.44741
-1.43608
-1.4243
-1.41217
-1.39973
-1.38697
-1.37388
-1.36049
-1.34681
-1.33286
-1.31865
-1.30421
-1.28955
-1.27471
-1.25971
-1.24457
-1.22934
-1.21404
-1.19869
-1.18335
-1.16803
-1.15278
-1.13762
-1.12259
-1.10772
-1.09301
-1.07848
-1.06419
-1.05016
-1.03625
-1.59266
-1.59224
-1.59155
-1.59042
-1.58851
-1.58554
-1.58132
-1.57579
-1.56894
-1.56082
-1.55152
-1.54115
-1.52987
-1.51773
-1.50485
-1.49147
-1.47772
-1.46365
-1.44926
-1.43458
-1.41964
-1.40444
-1.38901
-1.37337
-1.35755
-1.34157
-1.32546
-1.30925
-1.29298
-1.27667
-1.26036
-1.24408
-1.22786
-1.21175
-1.19577
-1.17996
-1.16435
-1.14897
-1.13384
-1.11897
-1.1044
-1.09017
-1.07625
-1.06251
-1.66857
-1.66812
-1.66722
-1.66554
-1.66264
-1.65818
-1.65209
-1.6444
-1.63525
-1.62478
-1.61315
-1.60052
-1.587
-1.57271
-1.55785
-1.54259
-1.52697
-1.51102
-1.4948
-1.47832
-1.46162
-1.44472
-1.42765
-1.41044
-1.39311
-1.37571
-1.35827
-1.34081
-1.32337
-1.306
-1.28872
-1.27157
-1.25459
-1.23782
-1.22128
-1.20502
-1.18906
-1.17343
-1.15816
-1.14324
-1.12875
-1.11471
-1.101
-1.0875
-0.939302
-0.939741
-0.940185
-0.940599
-0.941038
-0.941495
-0.941883
-0.942016
-0.941667
-0.940606
-0.938637
-0.935542
-0.931044
-0.925032
-0.917924
-0.910484
-0.90315
-0.896238
-0.89024
-0.88566
-0.882928
-0.882231
-0.883957
-0.888106
-0.894426
-0.902408
-0.911275
-0.919991
-0.927359
-0.932092
-0.93313
-0.92993
-0.923155
-0.913526
-0.90086
-0.885399
-0.867575
-0.847729
-0.826258
-0.803661
-0.780196
-0.756525
-0.732383
-0.70846
-0.958173
-0.958507
-0.958839
-0.959143
-0.95949
-0.959913
-0.960369
-0.960764
-0.961015
-0.961019
-0.960556
-0.959383
-0.957434
-0.954865
-0.951787
-0.948224
-0.944342
-0.940378
-0.936642
-0.933453
-0.931092
-0.929747
-0.929527
-0.930419
-0.93224
-0.934632
-0.93708
-0.938915
-0.939426
-0.93801
-0.934517
-0.929496
-0.922786
-0.913864
-0.902809
-0.88977
-0.87487
-0.858325
-0.840414
-0.821394
-0.801534
-0.781196
-0.760537
-0.740653
-0.999749
-0.999897
-1.00002
-1.00009
-1.00014
-1.00021
-1.00031
-1.00042
-1.00047
-1.00026
-0.999633
-0.998689
-0.997641
-0.996364
-0.994683
-0.992628
-0.99029
-0.987783
-0.98521
-0.982674
-0.98027
-0.978058
-0.976044
-0.974175
-0.972314
-0.970246
-0.96766
-0.96427
-0.959908
-0.954929
-0.949491
-0.942966
-0.935062
-0.925811
-0.915172
-0.903114
-0.889702
-0.875055
-0.859285
-0.842577
-0.825051
-0.807041
-0.788659
-0.770289
-1.04403
-1.04407
-1.04401
-1.0438
-1.04345
-1.043
-1.04249
-1.04188
-1.04104
-1.03978
-1.03812
-1.03654
-1.03537
-1.03439
-1.03324
-1.03188
-1.03033
-1.02858
-1.02663
-1.02444
-1.02198
-1.01919
-1.01601
-1.01237
-1.00814
-1.00323
-0.997588
-0.991536
-0.985457
-0.97901
-0.971813
-0.963829
-0.955025
-0.945286
-0.934542
-0.922792
-0.91006
-0.896387
-0.881834
-0.866514
-0.850497
-0.834062
-0.817158
-0.800293
-1.09129
-1.09126
-1.09108
-1.0907
-1.09014
-1.08942
-1.08855
-1.0874
-1.08574
-1.08331
-1.08046
-1.07822
-1.07686
-1.07575
-1.07447
-1.073
-1.07133
-1.06942
-1.06721
-1.06461
-1.06151
-1.05783
-1.05345
-1.04829
-1.04233
-1.03579
-1.02914
-1.02229
-1.01495
-1.00706
-0.998664
-0.989692
-0.980053
-0.969706
-0.958639
-0.946836
-0.9343
-0.921052
-0.907131
-0.892597
-0.877506
-0.862042
-0.846164
-0.830298
-1.14578
-1.14567
-1.14541
-1.14501
-1.14449
-1.14382
-1.14291
-1.14152
-1.13923
-1.13568
-1.13149
-1.12842
-1.12676
-1.12529
-1.12342
-1.12115
-1.11851
-1.11548
-1.112
-1.108
-1.10339
-1.09807
-1.09198
-1.08525
-1.07826
-1.07107
-1.06347
-1.0554
-1.0469
-1.03799
-1.0286
-1.01871
-1.0083
-0.997356
-0.985856
-0.973797
-0.961188
-0.948045
-0.93439
-0.920264
-0.905713
-0.890865
-0.875695
-0.860539
-1.2033
-1.20313
-1.20285
-1.20252
-1.20217
-1.20174
-1.201
-1.19949
-1.19668
-1.19212
-1.18644
-1.18204
-1.17984
-1.17808
-1.17557
-1.17229
-1.16836
-1.16382
-1.15867
-1.15286
-1.14639
-1.1393
-1.13188
-1.12428
-1.11636
-1.108
-1.09927
-1.09017
-1.0807
-1.07081
-1.06052
-1.04981
-1.03867
-1.0271
-1.0151
-1.00267
-0.989828
-0.976588
-0.962973
-0.949011
-0.934752
-0.920268
-0.905568
-0.890901
-1.25972
-1.25948
-1.25919
-1.25893
-1.25875
-1.25856
-1.25801
-1.2565
-1.25339
-1.24824
-1.24127
-1.23474
-1.23105
-1.2288
-1.22578
-1.22158
-1.21643
-1.21048
-1.20384
-1.19656
-1.18887
-1.18094
-1.17273
-1.16412
-1.15515
-1.14584
-1.13617
-1.12613
-1.11572
-1.10494
-1.0938
-1.08228
-1.07041
-1.05818
-1.04562
-1.03273
-1.01955
-1.00608
-0.992349
-0.978391
-0.964246
-0.949955
-0.935558
-0.921212
-1.31408
-1.31379
-1.31343
-1.31313
-1.31294
-1.31276
-1.3122
-1.31061
-1.30735
-1.30214
-1.29513
-1.28736
-1.28102
-1.27683
-1.27305
-1.26826
-1.2623
-1.25545
-1.248
-1.24015
-1.23193
-1.22328
-1.21421
-1.20475
-1.1949
-1.18465
-1.17402
-1.16302
-1.15166
-1.13996
-1.12792
-1.11556
-1.10291
-1.08997
-1.07679
-1.06338
-1.04976
-1.03597
-1.02203
-1.00797
-0.993821
-0.979608
-0.965399
-0.951267
-1.37081
-1.37052
-1.37013
-1.36977
-1.36947
-1.36909
-1.36824
-1.36637
-1.36303
-1.3581
-1.35186
-1.34476
-1.33746
-1.33072
-1.32468
-1.31855
-1.31167
-1.30401
-1.29574
-1.28694
-1.27763
-1.26787
-1.25766
-1.24703
-1.23598
-1.22455
-1.21275
-1.20061
-1.18815
-1.17539
-1.16235
-1.14907
-1.13557
-1.12187
-1.10801
-1.09401
-1.07992
-1.06575
-1.05154
-1.03732
-1.02309
-1.0089
-0.994825
-0.980839
-1.43689
-1.43659
-1.43618
-1.43573
-1.43519
-1.43443
-1.43317
-1.43103
-1.4277
-1.42304
-1.41715
-1.41024
-1.40257
-1.39436
-1.38578
-1.37692
-1.36768
-1.35795
-1.34771
-1.33703
-1.32593
-1.31443
-1.30255
-1.29031
-1.27774
-1.26484
-1.25165
-1.2382
-1.22449
-1.21058
-1.19646
-1.18219
-1.16778
-1.15328
-1.1387
-1.1241
-1.1095
-1.09493
-1.08043
-1.06601
-1.05169
-1.03753
-1.02356
-1.00971
-1.51313
-1.51277
-1.51224
-1.51151
-1.5104
-1.50869
-1.50616
-1.50267
-1.4981
-1.49237
-1.48545
-1.47739
-1.46827
-1.45827
-1.44754
-1.43622
-1.42444
-1.41232
-1.39987
-1.38711
-1.37402
-1.36063
-1.34695
-1.33299
-1.31878
-1.30434
-1.28968
-1.27484
-1.25985
-1.24472
-1.2295
-1.21422
-1.1989
-1.18358
-1.1683
-1.1531
-1.13801
-1.12305
-1.10828
-1.09369
-1.07931
-1.0652
-1.05138
-1.0377
-1.59269
-1.59227
-1.59158
-1.59045
-1.58857
-1.58562
-1.58142
-1.57592
-1.5691
-1.56101
-1.55173
-1.54138
-1.53012
-1.51799
-1.50512
-1.49174
-1.47799
-1.46391
-1.44952
-1.43484
-1.41989
-1.40469
-1.38926
-1.37362
-1.3578
-1.34183
-1.32572
-1.30952
-1.29326
-1.27697
-1.26068
-1.24442
-1.22825
-1.21218
-1.19625
-1.18051
-1.16499
-1.14972
-1.13474
-1.12004
-1.10567
-1.0917
-1.07809
-1.06469
-1.6687
-1.66825
-1.66736
-1.6657
-1.66281
-1.65839
-1.65233
-1.64468
-1.63556
-1.62512
-1.61352
-1.60091
-1.58741
-1.57313
-1.55828
-1.54302
-1.52739
-1.51145
-1.49523
-1.47875
-1.46204
-1.44514
-1.42808
-1.41087
-1.39355
-1.37616
-1.35872
-1.34127
-1.32386
-1.30651
-1.28926
-1.27215
-1.25523
-1.23852
-1.22206
-1.2059
-1.19006
-1.17459
-1.15951
-1.14483
-1.13062
-1.11693
-1.10363
-1.09064
-0.93926
-0.939699
-0.940143
-0.940556
-0.940995
-0.941452
-0.94184
-0.941972
-0.941622
-0.94056
-0.93859
-0.935493
-0.930992
-0.924979
-0.917869
-0.910427
-0.90309
-0.896177
-0.890177
-0.885595
-0.882862
-0.88216
-0.88388
-0.888024
-0.894337
-0.902312
-0.911172
-0.919881
-0.927244
-0.931973
-0.933009
-0.92981
-0.923039
-0.913414
-0.900753
-0.885299
-0.867485
-0.847649
-0.82619
-0.803607
-0.780158
-0.756502
-0.732377
-0.708471
-0.958108
-0.958442
-0.958774
-0.959078
-0.959425
-0.959848
-0.960304
-0.960699
-0.960949
-0.960952
-0.960489
-0.959315
-0.957366
-0.954796
-0.951716
-0.948153
-0.944269
-0.940303
-0.936565
-0.933373
-0.931009
-0.929659
-0.929435
-0.930321
-0.932137
-0.934525
-0.936969
-0.938803
-0.939313
-0.9379
-0.934409
-0.929391
-0.922682
-0.913763
-0.902711
-0.889677
-0.874784
-0.858248
-0.840347
-0.82134
-0.801494
-0.781172
-0.76053
-0.740663
-0.999669
-0.999817
-0.99994
-1.00001
-1.00006
-1.00013
-1.00023
-1.00035
-1.00039
-1.00018
-0.999561
-0.998618
-0.997572
-0.996296
-0.994616
-0.992561
-0.990223
-0.987715
-0.98514
-0.982601
-0.980193
-0.977976
-0.975958
-0.974084
-0.972218
-0.970147
-0.96756
-0.96417
-0.95981
-0.954831
-0.949392
-0.942866
-0.934963
-0.925714
-0.915076
-0.903023
-0.889617
-0.874977
-0.859217
-0.842521
-0.82501
-0.807016
-0.788652
-0.7703
-1.04393
-1.04397
-1.04391
-1.0437
-1.04335
-1.04291
-1.0424
-1.04179
-1.04095
-1.03969
-1.03804
-1.03646
-1.0353
-1.03432
-1.03318
-1.03182
-1.03026
-1.02852
-1.02657
-1.02438
-1.02191
-1.01911
-1.01593
-1.01229
-1.00806
-1.00314
-0.997501
-0.991447
-0.985364
-0.978914
-0.971715
-0.96373
-0.954925
-0.945187
-0.934445
-0.922699
-0.909972
-0.896307
-0.881764
-0.866457
-0.850456
-0.834038
-0.817154
-0.80031
-1.09114
-1.09111
-1.09093
-1.09055
-1.08999
-1.08928
-1.0884
-1.08725
-1.08559
-1.08317
-1.08034
-1.0781
-1.07675
-1.07564
-1.07437
-1.0729
-1.07123
-1.06933
-1.06712
-1.06452
-1.06143
-1.05774
-1.05336
-1.04821
-1.04224
-1.03571
-1.02905
-1.02219
-1.01485
-1.00696
-0.998562
-0.989588
-0.979948
-0.969603
-0.958537
-0.946738
-0.934209
-0.92097
-0.90706
-0.89254
-0.877467
-0.862024
-0.846169
-0.830328
-1.14555
-1.14544
-1.14519
-1.14478
-1.14426
-1.14359
-1.14268
-1.14128
-1.139
-1.13546
-1.13129
-1.12823
-1.12657
-1.12511
-1.12325
-1.12099
-1.11836
-1.11534
-1.11187
-1.10788
-1.10328
-1.09797
-1.09189
-1.08516
-1.07816
-1.07098
-1.06337
-1.0553
-1.0468
-1.03788
-1.0285
-1.0186
-1.00819
-0.997248
-0.985751
-0.973697
-0.961096
-0.947963
-0.934322
-0.920212
-0.905682
-0.890859
-0.875717
-0.860594
-1.20304
-1.20287
-1.20259
-1.20225
-1.2019
-1.20147
-1.20072
-1.19921
-1.19641
-1.19187
-1.18621
-1.18183
-1.17965
-1.17788
-1.17539
-1.17211
-1.1682
-1.16368
-1.15854
-1.15275
-1.14629
-1.13921
-1.13179
-1.12419
-1.11626
-1.10791
-1.09917
-1.09007
-1.08059
-1.0707
-1.06041
-1.0497
-1.03856
-1.02699
-1.01499
-1.00257
-0.989739
-0.976513
-0.962914
-0.948972
-0.934739
-0.920285
-0.905621
-0.890995
-1.25953
-1.2593
-1.259
-1.25874
-1.25856
-1.25837
-1.25781
-1.2563
-1.25319
-1.24806
-1.24112
-1.23463
-1.23096
-1.22871
-1.22569
-1.2215
-1.21635
-1.21042
-1.20378
-1.19651
-1.18881
-1.18089
-1.17266
-1.16406
-1.15508
-1.14576
-1.13609
-1.12604
-1.11562
-1.10484
-1.09369
-1.08218
-1.0703
-1.05808
-1.04552
-1.03265
-1.01947
-1.00602
-0.992311
-0.97838
-0.964267
-0.950015
-0.935664
-0.921372
-1.31405
-1.31376
-1.31341
-1.31311
-1.31291
-1.31273
-1.31217
-1.31057
-1.30731
-1.30211
-1.2951
-1.28736
-1.28105
-1.27689
-1.2731
-1.2683
-1.26234
-1.25549
-1.24802
-1.24016
-1.23192
-1.22327
-1.21419
-1.20471
-1.19485
-1.18459
-1.17396
-1.16295
-1.15158
-1.13987
-1.12783
-1.11547
-1.10282
-1.08989
-1.07672
-1.06331
-1.04972
-1.03595
-1.02204
-1.00801
-0.993903
-0.979741
-0.965591
-0.951531
-1.37084
-1.37054
-1.37016
-1.3698
-1.36951
-1.36913
-1.36828
-1.36641
-1.36307
-1.35815
-1.35191
-1.34481
-1.33751
-1.33078
-1.32476
-1.31864
-1.31175
-1.30408
-1.29579
-1.28697
-1.27765
-1.26788
-1.25766
-1.24702
-1.23596
-1.22452
-1.21271
-1.20057
-1.1881
-1.17534
-1.1623
-1.14902
-1.13552
-1.12183
-1.10798
-1.094
-1.07993
-1.06579
-1.05162
-1.03744
-1.02327
-1.00915
-0.995155
-0.981265
-1.43696
-1.43666
-1.43625
-1.4358
-1.43526
-1.4345
-1.43324
-1.4311
-1.42776
-1.4231
-1.41721
-1.4103
-1.40264
-1.39442
-1.38585
-1.377
-1.36776
-1.35803
-1.34778
-1.33709
-1.32599
-1.31448
-1.30259
-1.29034
-1.27776
-1.26486
-1.25167
-1.23821
-1.2245
-1.21058
-1.19647
-1.1822
-1.1678
-1.15331
-1.13875
-1.12417
-1.1096
-1.09508
-1.08062
-1.06627
-1.05203
-1.03795
-1.02409
-1.01037
-1.51316
-1.5128
-1.51228
-1.51156
-1.51046
-1.50876
-1.50625
-1.50277
-1.49821
-1.49248
-1.48557
-1.47752
-1.46841
-1.45841
-1.44769
-1.43638
-1.4246
-1.41247
-1.40002
-1.38725
-1.37415
-1.36075
-1.34707
-1.3331
-1.31889
-1.30444
-1.28978
-1.27494
-1.25994
-1.24482
-1.2296
-1.21433
-1.19902
-1.18372
-1.16847
-1.1533
-1.13825
-1.12335
-1.10865
-1.09414
-1.07986
-1.06587
-1.05219
-1.03869
-1.59271
-1.59229
-1.59161
-1.5905
-1.58863
-1.5857
-1.58154
-1.57607
-1.56928
-1.56122
-1.55197
-1.54164
-1.53039
-1.51828
-1.50541
-1.49202
-1.47827
-1.46418
-1.44979
-1.4351
-1.42015
-1.40494
-1.3895
-1.37386
-1.35804
-1.34206
-1.32595
-1.30975
-1.29349
-1.2772
-1.26092
-1.24468
-1.22853
-1.21248
-1.1966
-1.1809
-1.16544
-1.15024
-1.13535
-1.12077
-1.10654
-1.09272
-1.07929
-1.06612
-1.66884
-1.66839
-1.66751
-1.66587
-1.66301
-1.65862
-1.6526
-1.64498
-1.6359
-1.6255
-1.61393
-1.60135
-1.58787
-1.5736
-1.55874
-1.54347
-1.52785
-1.5119
-1.49567
-1.47919
-1.46248
-1.44557
-1.4285
-1.41128
-1.39396
-1.37657
-1.35913
-1.34169
-1.32428
-1.30694
-1.28971
-1.27262
-1.25573
-1.23905
-1.22264
-1.20654
-1.19078
-1.17541
-1.16044
-1.14591
-1.13187
-1.11837
-1.10531
-1.09261
-0.939216
-0.939655
-0.940099
-0.940512
-0.940951
-0.941408
-0.941795
-0.941927
-0.941577
-0.940513
-0.938542
-0.935444
-0.930942
-0.924926
-0.917815
-0.910371
-0.903032
-0.896117
-0.890114
-0.88553
-0.882795
-0.882086
-0.8838
-0.887936
-0.894242
-0.902209
-0.911061
-0.919763
-0.927119
-0.931844
-0.932877
-0.929679
-0.922911
-0.913288
-0.900632
-0.885186
-0.86738
-0.847556
-0.826111
-0.803542
-0.78011
-0.756471
-0.732366
-0.708478
-0.958042
-0.958376
-0.958708
-0.959012
-0.959359
-0.959781
-0.960238
-0.960632
-0.960882
-0.960885
-0.960421
-0.959247
-0.957298
-0.954727
-0.951646
-0.948081
-0.944196
-0.940229
-0.936488
-0.933292
-0.930924
-0.929569
-0.929339
-0.930219
-0.932029
-0.934411
-0.936851
-0.938682
-0.939193
-0.93778
-0.934292
-0.929274
-0.922566
-0.913649
-0.902601
-0.889572
-0.874686
-0.858159