/*--------------------------------*- C++ -*----------------------------------*\
| =========                 |                                                 |
| \\      /  F ield         | OpenFOAM: The Open Source CFD Toolbox           |
|  \\    /   O peration     | Version:  2312                                  |
|   \\  /    A nd           | Website:  www.openfoam.com                      |
|    \\/     M anipulation  |                                                 |
\*---------------------------------------------------------------------------*/
FoamFile
{
    version     2.0;
    format      ascii;
    arch        "LSB;label=32;scalar=64";
    class       volScalarField;
    location    "1.5";
    object      yPlus;
}
// * * * * * * * * * * * * * * * * * * * * * * * * * * * * * * * * * * * * * //

dimensions      [0 0 0 0 0 0 0];

internalField   uniform 0;

boundaryField
{
    down
    {
        type            symmetry;
    }
    right
    {
        type            calculated;
        value           uniform 0;
    }
    up
    {
        type            symmetry;
    }
    left
    {
        type            calculated;
        value           uniform 0;
    }
    cylinder
    {
        type            calculated;
        value           nonuniform List<scalar> 
1568
(
0.239072
0.34719
0.465884
0.50791
0.536096
0.544729
0.521868
0.472039
0.394162
0.288976
0.139705
0.255236
0.426407
0.558363
0.239802
0.34679
0.465865
0.50801
0.536201
0.54486
0.522082
0.472421
0.394767
0.289829
0.14163
0.253778
0.425124
0.557077
0.240042
0.346667
0.465856
0.508004
0.536145
0.544815
0.522186
0.47282
0.39551
0.290934
0.144198
0.251763
0.423272
0.555156
0.240142
0.346596
0.465824
0.507937
0.536011
0.54471
0.522311
0.473352
0.396489
0.292383
0.147473
0.249104
0.420858
0.552676
0.240167
0.346573
0.465823
0.50789
0.535879
0.544609
0.522469
0.473988
0.397648
0.294068
0.151171
0.245976
0.418062
0.549843
0.240164
0.346567
0.465828
0.507843
0.535743
0.544518
0.522681
0.474738
0.398918
0.295876
0.155089
0.24255
0.415072
0.546865
0.240139
0.346571
0.465844
0.507808
0.535623
0.544455
0.522937
0.475531
0.400281
0.297777
0.158911
0.239029
0.412064
0.54392
0.240096
0.346585
0.465867
0.507782
0.53552
0.544421
0.52323
0.476336
0.401693
0.299707
0.162497
0.235536
0.409144
0.541107
0.240036
0.346607
0.465895
0.507765
0.535439
0.544423
0.523555
0.477163
0.403032
0.301479
0.165835
0.232168
0.406406
0.538513
0.239971
0.346632
0.465929
0.507765
0.535387
0.544454
0.523886
0.477952
0.404237
0.303096
0.16886
0.229103
0.403949
0.536215
0.239897
0.346667
0.465967
0.507771
0.535353
0.544497
0.52419
0.478625
0.405337
0.304541
0.171315
0.226446
0.401858
0.53428
0.239787
0.346739
0.466032
0.507811
0.535355
0.544549
0.524439
0.479177
0.40619
0.305636
0.173222
0.224322
0.40021
0.532765
0.239565
0.346857
0.466068
0.507804
0.535323
0.544559
0.524596
0.479539
0.406734
0.306344
0.17446
0.222935
0.399148
0.5318
0.238865
0.347254
0.466105
0.507706
0.53518
0.544419
0.524533
0.479566
0.406801
0.30644
0.174679
0.222608
0.398882
0.531538
0.350012
0.602224
0.770619
0.887354
0.952115
0.953187
0.879187
0.725435
0.492458
0.118593
0.339346
0.436508
0.495729
0.464748
0.350025
0.602229
0.770608
0.887338
0.952113
0.953239
0.879329
0.725689
0.492839
0.11973
0.339092
0.436297
0.495481
0.464749
0.349967
0.602183
0.770565
0.887301
0.95209
0.953247
0.879386
0.72581
0.493047
0.120427
0.338912
0.436155
0.495359
0.464743
0.349914
0.602156
0.770541
0.887272
0.952057
0.953222
0.879387
0.725868
0.493207
0.121128
0.338702
0.435995
0.495237
0.464704
0.349837
0.602103
0.770498
0.887235
0.952028
0.953207
0.8794
0.725932
0.493357
0.121744
0.338515
0.43585
0.495124
0.46465
0.349761
0.602055
0.770462
0.887208
0.95201
0.953201
0.879416
0.725988
0.493482
0.122249
0.338354
0.43572
0.495022
0.464594
0.349684
0.602004
0.770425
0.887184
0.952001
0.953211
0.879453
0.726065
0.493623
0.122776
0.33819
0.435588
0.494912
0.464523
0.349617
0.60196
0.770395
0.887168
0.952004
0.953235
0.879504
0.726152
0.493763
0.123274
0.338035
0.435461
0.494803
0.464445
0.349564
0.601923
0.770371
0.887161
0.952017
0.953272
0.879567
0.726244
0.493897
0.123717
0.337898
0.435346
0.4947
0.464364
0.349524
0.601892
0.770351
0.887157
0.952037
0.953321
0.879643
0.726345
0.494029
0.124118
0.337778
0.435245
0.494601
0.46428
0.349507
0.601877
0.770343
0.887165
0.952065
0.95337
0.879708
0.726416
0.494102
0.124302
0.337717
0.435186
0.494536
0.464211
0.349488
0.601849
0.770326
0.887169
0.952096
0.953423
0.87977
0.72647
0.494122
0.124253
0.337728
0.43518
0.494512
0.464159
0.349502
0.601858
0.770337
0.887185
0.952113
0.953429
0.879756
0.726427
0.494046
0.124038
0.337762
0.435202
0.494527
0.464108
0.349469
0.601836
0.770334
0.887192
0.952113
0.953386
0.879636
0.726211
0.493728
0.123165
0.33794
0.435351
0.494718
0.464089
0.973954
0.980785
0.984581
0.985263
0.982607
0.976172
0.96538
0.949443
0.92731
0.897567
0.858615
0.807968
0.743725
0.661072
0.974567
0.981236
0.984868
0.985383
0.982547
0.975915
0.964928
0.948786
0.926464
0.89656
0.857475
0.806736
0.742443
0.659775
0.976175
0.982514
0.985812
0.985984
0.982784
0.975776
0.964408
0.947897
0.925248
0.895048
0.855731
0.804835
0.740469
0.657798
0.978325
0.984197
0.987039
0.986754
0.983079
0.975587
0.963747
0.946792
0.923719
0.893144
0.853532
0.802432
0.737957
0.655267
0.98103
0.986337
0.988627
0.987794
0.983561
0.97552
0.963146
0.945658
0.922095
0.8911
0.851143
0.799788
0.735162
0.652415
0.983947
0.988636
0.990333
0.988924
0.984113
0.975502
0.962564
0.944549
0.920502
0.889062
0.848741
0.797108
0.732298
0.649459
0.987072
0.991129
0.992217
0.990211
0.984811
0.97563
0.962143
0.943612
0.919078
0.887196
0.8465
0.794571
0.729551
0.646582
0.990211
0.993663
0.994161
0.991575
0.985598
0.975872
0.961868
0.942827
0.91782
0.88552
0.844466
0.79224
0.726996
0.643872
0.993435
0.996276
0.996181
0.993011
0.98648
0.976233
0.961715
0.942203
0.916771
0.88408
0.842687
0.790175
0.724705
0.64141
0.996414
0.998711
0.998078
0.994382
0.987347
0.976624
0.961653
0.941729
0.915917
0.882876
0.841175
0.788402
0.722718
0.639253
0.999209
1.00096
0.999804
0.995619
0.988134
0.97699
0.96164
0.941374
0.915234
0.881897
0.83994
0.786945
0.721074
0.637453
1.00165
1.00293
1.00133
0.996727
0.988857
0.977369
0.961705
0.941145
0.91474
0.881167
0.839002
0.785824
0.7198
0.636051
1.00301
1.00411
1.00231
0.997484
0.989397
0.977697
0.961831
0.94108
0.914495
0.880758
0.838447
0.785143
0.71901
0.635168
1.00379
1.00484
1.00296
0.998034
0.989835
0.978022
0.962046
0.941193
0.914516
0.880699
0.83832
0.784961
0.718788
0.634919
0.384786
0.487721
0.569654
0.637892
0.696211
0.746729
0.790699
0.828916
0.861965
0.890321
0.914387
0.934506
0.95098
0.96406
0.3818
0.486137
0.569093
0.638118
0.697027
0.747955
0.792171
0.830493
0.863534
0.891799
0.915718
0.93566
0.951945
0.964843
0.377041
0.483795
0.568563
0.638989
0.698946
0.750596
0.795243
0.83375
0.866782
0.894898
0.918577
0.938226
0.954199
0.966776
0.373259
0.482583
0.569448
0.641525
0.702692
0.755133
0.800193
0.838796
0.871677
0.899469
0.922714
0.941875
0.957338
0.969412
0.371248
0.483004
0.572065
0.645865
0.708249
0.761423
0.806783
0.845334
0.877902
0.905206
0.927864
0.946398
0.961233
0.9727
0.370631
0.484949
0.576275
0.651774
0.715277
0.769038
0.814528
0.852852
0.884943
0.911615
0.933563
0.951365
0.965484
0.976266
0.368356
0.486814
0.580905
0.658243
0.722856
0.777133
0.82267
0.860699
0.892268
0.918283
0.93951
0.956573
0.969968
0.980055
0.361106
0.486016
0.583665
0.663152
0.729018
0.783922
0.829646
0.86756
0.898814
0.92438
0.945074
0.961553
0.974339
0.983808
0.348146
0.48151
0.583557
0.665691
0.733204
0.789121
0.835419
0.873586
0.904842
0.930208
0.950542
0.966543
0.978775
0.987646
0.334376
0.474945
0.580648
0.665172
0.734436
0.791689
0.838994
0.877859
0.90952
0.935017
0.955247
0.970963
0.98278
0.991158
0.319583
0.466677
0.57591
0.663037
0.734422
0.793425
0.842105
0.881944
0.914168
0.939853
0.959964
0.975338
0.98668
0.994515
0.304846
0.45822
0.57076
0.660385
0.733828
0.794524
0.844522
0.885288
0.918058
0.943947
0.963987
0.979094
0.990045
0.997426
0.296136
0.452965
0.567181
0.658113
0.732662
0.794283
0.845013
0.886315
0.91944
0.945538
0.965672
0.980787
0.991679
0.998946
0.293819
0.451275
0.565694
0.656776
0.73149
0.793311
0.844284
0.885862
0.919281
0.945668
0.966059
0.981374
0.992398
0.999728
0.98433
0.958029
0.927984
0.894157
0.8561
0.813038
0.763971
0.707755
0.64293
0.567277
0.476748
0.362291
0.191167
0.237429
0.984072
0.957626
0.927493
0.893659
0.855697
0.812859
0.764159
0.708452
0.64427
0.569432
0.479942
0.367014
0.200489
0.23188
0.983999
0.957219
0.926863
0.892993
0.855236
0.81287
0.764905
0.710199
0.647294
0.573967
0.486344
0.376232
0.218597
0.223762
0.98483
0.95852
0.928508
0.894963
0.857618
0.815836
0.768691
0.715038
0.653381
0.581545
0.495826
0.388819
0.241648
0.219977
0.985793
0.960829
0.931964
0.899406
0.862967
0.822087
0.775882
0.723217
0.662609
0.591938
0.507727
0.403383
0.265047
0.222283
0.98668
0.963788
0.936854
0.906008
0.871046
0.831419
0.786247
0.734379
0.674379
0.604237
0.520732
0.417907
0.284674
0.226364
0.987242
0.966733
0.942208
0.913626
0.88064
0.842574
0.798461
0.747136
0.687201
0.61683
0.533031
0.43004
0.296314
0.219936
0.987064
0.968556
0.946106
0.919495
0.888219
0.851491
0.808313
0.757576
0.69803
0.628012
0.544595
0.441754
0.305638
0.196931
0.985783
0.96849
0.947316
0.921948
0.891838
0.856232
0.814239
0.764899
0.707041
0.638985
0.557664
0.456664
0.320707
0.158974
0.983465
0.966714
0.946188
0.921584
0.892406
0.857986
0.817505
0.769996
0.714252
0.648411
0.569148
0.47009
0.336076
0.123314
0.981163
0.964652
0.944485
0.920386
0.891911
0.858455
0.819252
0.773332
0.719389
0.655494
0.578351
0.481717
0.351404
0.126506
0.979036
0.962593
0.942621
0.918876
0.890957
0.858299
0.820155
0.77554
0.723102
0.660858
0.58553
0.491094
0.3643
0.148043
0.977531
0.961073
0.941171
0.9176
0.889979
0.857754
0.820178
0.776251
0.724591
0.6632
0.588838
0.495658
0.370911
0.162488
0.976799
0.960314
0.940432
0.916935
0.889443
0.857404
0.820058
0.77639
0.724994
0.663855
0.589725
0.496777
0.372475
0.166296
0.643507
0.735886
0.810793
0.871645
0.920875
0.960399
0.991386
1.01462
1.03052
1.03919
1.04076
1.03548
1.02382
1.0065
0.643247
0.735507
0.810306
0.871074
0.92026
0.959795
0.990856
1.01423
1.0303
1.03914
1.04083
1.03558
1.02387
1.00641
0.643401
0.735394
0.809944
0.870511
0.919569
0.959076
0.990226
1.0138
1.03017
1.03933
1.04128
1.03616
1.02438
1.00668
0.643906
0.735416
0.809432
0.869439
0.917932
0.956906
0.987615
1.0109
1.02722
1.0366
1.03907
1.03469
1.02375
1.00685
0.644786
0.73573
0.809104
0.868408
0.916143
0.954334
0.984294
1.00694
1.02284
1.03217
1.03501
1.03146
1.02176
1.00633
0.645794
0.736107
0.808758
0.867262
0.914127
0.951403
0.980471
1.00232
1.01763
1.02674
1.02984
1.02711
1.01879
1.00517
0.646894
0.7366
0.808555
0.866287
0.912309
0.948694
0.976878
0.997923
1.0126
1.02139
1.02461
1.02253
1.01543
1.00357
0.64798
0.737149
0.808493
0.86555
0.910838
0.946449
0.973861
0.994192
1.00829
1.01675
1.01998
1.01833
1.01214
1.00164
0.649051
0.737793
0.80865
0.86517
0.909873
0.944866
0.971651
0.991391
1.005
1.01311
1.01622
1.01473
1.00902
0.999313
0.650063
0.738499
0.809003
0.86513
0.909401
0.943922
0.970209
0.989468
1.00264
1.01038
1.01323
1.01165
1.00602
0.996579
0.650969
0.739211
0.809487
0.865354
0.909329
0.943514
0.969437
0.988328
1.00113
1.00852
1.01109
1.00931
1.00358
0.994148
0.651718
0.739856
0.810007
0.865721
0.909511
0.943472
0.969141
0.987751
1.00023
1.00731
1.00958
1.00754
1.00161
0.992057
0.652298
0.740393
0.810486
0.866127
0.909819
0.943649
0.969164
0.987589
0.999853
1.0067
1.00873
1.00646
1.00034
0.99064
0.652824
0.740889
0.810949
0.866552
0.910193
0.943956
0.969392
0.987713
0.999851
1.00656
1.00843
1.00603
0.999781
0.989976
0.328932
0.272654
0.434095
0.498623
0.540644
0.558744
0.533882
0.475334
0.418072
0.350891
0.221907
0.203557
0.388262
0.529003
0.329346
0.272089
0.433955
0.498626
0.540682
0.558784
0.533872
0.475251
0.417941
0.350756
0.221819
0.20363
0.388222
0.528859
0.32949
0.271899
0.433849
0.498544
0.540582
0.558573
0.533455
0.474671
0.417312
0.349982
0.220669
0.204935
0.388948
0.529318
0.329561
0.271787
0.433728
0.498406
0.540399
0.55822
0.532783
0.473756
0.416319
0.348698
0.218668
0.20725
0.390345
0.530313
0.329617
0.271705
0.43362
0.498278
0.540206
0.557797
0.531951
0.472604
0.41504
0.347014
0.215965
0.210307
0.392274
0.531771
0.329678
0.271629
0.433513
0.498147
0.540002
0.557336
0.531042
0.471336
0.413617
0.345145
0.212889
0.213638
0.394422
0.53341
0.329747
0.271542
0.433406
0.498022
0.539808
0.55688
0.530129
0.470055
0.412167
0.343238
0.209679
0.216973
0.396622
0.53512
0.329824
0.271451
0.433304
0.497908
0.53963
0.556454
0.52927
0.468848
0.410817
0.341453
0.206639
0.220013
0.39869
0.53675
0.329918
0.271345
0.433209
0.49781
0.53948
0.556086
0.528519
0.467787
0.409638
0.339901
0.203904
0.222686
0.400544
0.538257
0.330043
0.271218
0.433132
0.497742
0.539374
0.555798
0.527909
0.466913
0.408672
0.338636
0.201606
0.224906
0.402122
0.539587
0.330199
0.271083
0.433074
0.497704
0.539308
0.555593
0.527454
0.466252
0.407953
0.337687
0.199834
0.226621
0.403386
0.540696
0.330349
0.270977
0.43306
0.497716
0.5393
0.555476
0.527146
0.465786
0.407451
0.337027
0.198556
0.227867
0.40433
0.541558
0.330437
0.270943
0.433062
0.497723
0.53929
0.555396
0.526938
0.465485
0.407134
0.336597
0.197707
0.22871
0.404994
0.542189
0.3302
0.271343
0.433153
0.497702
0.539217
0.555224
0.526648
0.465156
0.406848
0.336204
0.19686
0.229538
0.405612
0.542768
0.343872
0.599679
0.766197
0.880165
0.942528
0.942357
0.868668
0.716263
0.481042
0.0699561
0.351131
0.454913
0.521945
0.502406
0.3439
0.599703
0.766205
0.880168
0.942534
0.942403
0.86879
0.716455
0.481337
0.0712648
0.351013
0.454791
0.521797
0.502404
0.343935
0.599708
0.766194
0.880144
0.942503
0.942375
0.868774
0.716453
0.481348
0.0713102
0.351031
0.454809
0.521815
0.502453
0.343997
0.599742
0.766204
0.880123
0.942449
0.942289
0.868663
0.716332
0.481228
0.0709692
0.351089
0.454867
0.521883
0.502521
0.344058
0.599764
0.766202
0.880097
0.942394
0.942202
0.868545
0.716187
0.48105
0.0701994
0.351219
0.454981
0.521995
0.502605
0.34412
0.599788
0.766203
0.880073
0.94234
0.942109
0.868412
0.716012
0.480816
0.06911
0.351395
0.45513
0.522135
0.502709
0.344179
0.599809
0.766201
0.880049
0.94229
0.942029
0.868296
0.715854
0.480595
0.0679942
0.351579
0.455284
0.522274
0.502811
0.344227
0.599821
0.766194
0.880022
0.942242
0.941956
0.868196
0.715718
0.4804
0.0669675
0.351749
0.455428
0.522403
0.502912
0.344262
0.599828
0.766185
0.879998
0.942204
0.941904
0.868127
0.715619
0.480248
0.0660812
0.351901
0.455555
0.522517
0.503007
0.344276
0.599818
0.766162
0.879966
0.942167
0.941869
0.868091
0.715573
0.480166
0.0655087
0.352011
0.45565
0.5226
0.503097
0.344273
0.599802
0.766139
0.87994
0.942144
0.941855
0.868083
0.715552
0.480105
0.0649582
0.35212
0.455737
0.522679
0.503194
0.344244
0.599758
0.766093
0.879902
0.942124
0.941859
0.868102
0.715568
0.480074
0.0644532
0.35223
0.455825
0.522753
0.503288
0.344223
0.59974
0.766072
0.879882
0.942104
0.941839
0.868077
0.715524
0.479993
0.0638981
0.352329
0.455901
0.522829
0.50337
0.344196
0.599699
0.766035
0.879843
0.942063
0.941765
0.867937
0.715327
0.479691
0.0624082
0.352483
0.456084
0.523035
0.503448
)
;
    }
    frontAndBack
    {
        type            symmetry;
    }
}


// ************************************************************************* //
