/*--------------------------------*- C++ -*----------------------------------*\
| =========                 |                                                 |
| \\      /  F ield         | OpenFOAM: The Open Source CFD Toolbox           |
|  \\    /   O peration     | Version:  2312                                  |
|   \\  /    A nd           | Website:  www.openfoam.com                      |
|    \\/     M anipulation  |                                                 |
\*---------------------------------------------------------------------------*/
FoamFile
{
    version     2.0;
    format      ascii;
    arch        "LSB;label=32;scalar=64";
    class       volScalarField;
    location    "0.8";
    object      p;
}
// * * * * * * * * * * * * * * * * * * * * * * * * * * * * * * * * * * * * * //

dimensions      [0 2 -2 0 0 0 0];

internalField   nonuniform List<scalar> 
400
(
1.37226e-05
-0.00285732
-0.00824478
-0.0144712
-0.019547
-0.021616
-0.0190948
-0.010838
0.00364372
0.02387
0.0028905
-1.60989e-05
-0.00427991
-0.0089244
-0.0126368
-0.0139554
-0.0115304
-0.00432873
0.00814497
0.025548
0.00837595
0.00416358
-0.000265675
-0.0043505
-0.00738631
-0.00827717
-0.0059351
0.000504002
0.0114829
0.0267436
0.0151407
0.00888838
0.00335487
-0.00104933
-0.00409186
-0.00494984
-0.00274974
0.00320551
0.0132813
0.0272585
0.0215997
0.0130384
0.00593738
0.000736448
-0.00269758
-0.00374445
-0.00169161
0.00401601
0.0136664
0.0270569
0.0261518
0.015161
0.00622428
-5.48274e-05
-0.00408127
-0.0053779
-0.00334302
0.00246661
0.0122694
0.0258658
0.026997
0.0134501
0.00249523
-0.00500456
-0.00966053
-0.0110929
-0.00876826
-0.00232519
0.00839856
0.0232033
0.0218328
0.00551292
-0.00761229
-0.0163387
-0.0214589
-0.0226723
-0.019494
-0.0116283
0.00104317
0.0183331
0.00738
-0.0120784
-0.0275214
-0.0373089
-0.0424365
-0.0427117
-0.0377243
-0.0272655
-0.01126
0.0101513
-0.0213883
-0.044577
-0.0624446
-0.0727999
-0.0769509
-0.0749354
-0.0665388
-0.0517299
-0.0304995
-0.00287017
0.0470132
0.0678309
0.083028
0.091756
0.0943766
0.0921192
0.0867487
0.0802898
0.0748264
0.0719966
0.0454816
0.0633874
0.0764667
0.0840697
0.0865877
0.0851245
0.0811775
0.0763446
0.0720221
0.0691793
0.0442425
0.0599893
0.071557
0.0783932
0.0808356
0.0798092
0.0765401
0.0722587
0.0677678
0.0636478
0.0433275
0.0578591
0.0686204
0.0750566
0.0773996
0.0763996
0.0730797
0.0684217
0.0627898
0.0566347
0.0425211
0.0566229
0.0671818
0.0735685
0.0758789
0.0747049
0.0709297
0.0653759
0.0580935
0.0495947
0.0416528
0.0562341
0.0673439
0.0742061
0.0767442
0.0754017
0.0709739
0.0642016
0.0549331
0.0438974
0.0404782
0.0567122
0.0694079
0.0775592
0.0808643
0.0796089
0.074536
0.0663654
0.0548283
0.0409989
0.0385732
0.0579968
0.0737245
0.0844187
0.0894631
0.0889322
0.0835103
0.073922
0.0598218
0.0427628
0.0352392
0.0598869
0.0806945
0.0958691
0.104326
0.105788
0.100788
0.0900132
0.0730234
0.0520306
0.0294495
0.0619984
0.0907759
0.113405
0.128093
0.133918
0.131007
0.119813
0.0996673
0.073678
-0.0705998
-0.0983706
-0.118494
-0.128193
-0.129419
-0.122739
-0.108408
-0.0867692
-0.0579343
-0.0216891
-0.143685
-0.17704
-0.198552
-0.20504
-0.199901
-0.184876
-0.161187
-0.12985
-0.0911637
-0.0445056
-0.243519
-0.283538
-0.304108
-0.302434
-0.285187
-0.256492
-0.219214
-0.175308
-0.125187
-0.0675253
-0.379193
-0.426489
-0.440313
-0.421117
-0.38252
-0.332739
-0.27683
-0.217602
-0.155178
-0.0870033
-0.569937
-0.620965
-0.61367
-0.55995
-0.486282
-0.406277
-0.3268
-0.250562
-0.176358
-0.0996087
-0.856422
-0.891459
-0.829988
-0.713476
-0.586745
-0.467282
-0.361202
-0.268655
-0.185312
-0.10357
-1.31969
-1.27186
-1.08998
-0.870036
-0.670179
-0.504709
-0.373103
-0.268494
-0.181037
-0.0993193
-2.1412
-1.79773
-1.3697
-0.999366
-0.712877
-0.504138
-0.355932
-0.248446
-0.164451
-0.0889318
-3.78779
-2.46587
-1.54593
-1.00473
-0.659377
-0.439016
-0.29914
-0.205644
-0.136086
-0.0744367
-6.55335
-3.07043
-1.42372
-0.793479
-0.48179
-0.308733
-0.209619
-0.147173
-0.101216
-0.058906
0.0204812
0.0639817
0.104306
0.138445
0.163611
0.177773
0.180128
0.170433
0.147346
0.11502
0.00921679
0.065803
0.12069
0.170464
0.211195
0.23921
0.251969
0.247576
0.222946
0.183102
-0.00214315
0.0679089
0.138814
0.20738
0.268815
0.317509
0.348237
0.355838
0.333206
0.285171
-0.0111687
0.071253
0.158171
0.247598
0.334748
0.412411
0.472047
0.503158
0.490375
0.434799
-0.0159686
0.0761583
0.177319
0.287929
0.404793
0.520633
0.624247
0.698338
0.712977
0.656228
-0.0161378
0.0815878
0.19333
0.323042
0.471318
0.634012
0.800576
0.94856
1.02815
0.995791
-0.0130627
0.0850845
0.201945
0.345724
0.523292
0.73868
0.988991
1.2542
1.47035
1.53959
-0.00947283
0.0830066
0.197423
0.345842
0.543123
0.807615
1.15536
1.58783
2.07461
2.47444
-0.00833168
0.0710703
0.172464
0.308882
0.500484
0.780885
1.19729
1.82123
2.83602
4.26708
-0.0104219
0.050767
0.130646
0.238893
0.392841
0.628673
1.01802
1.7516
3.52095
7.1267
)
;

boundaryField
{
    movingWall
    {
        type            zeroGradient;
    }
    fixedWalls
    {
        type            zeroGradient;
    }
    frontAndBack
    {
        type            empty;
    }
}


// ************************************************************************* //
