/*--------------------------------*- C++ -*----------------------------------*\
| =========                 |                                                 |
| \\      /  F ield         | OpenFOAM: The Open Source CFD Toolbox           |
|  \\    /   O peration     | Version:  2312                                  |
|   \\  /    A nd           | Website:  www.openfoam.com                      |
|    \\/     M anipulation  |                                                 |
\*---------------------------------------------------------------------------*/
FoamFile
{
    version     2.0;
    format      ascii;
    arch        "LSB;label=32;scalar=64";
    class       surfaceScalarField;
    location    "0.8";
    object      phi;
}
// * * * * * * * * * * * * * * * * * * * * * * * * * * * * * * * * * * * * * //

dimensions      [0 3 -1 0 0 0 0];

oriented        oriented;

internalField   nonuniform List<scalar> 
760
(
6.56275e-09
-6.61754e-09
4.22553e-09
2.33724e-09
-1.64384e-08
2.06639e-08
-5.77126e-08
4.12741e-08
-1.17719e-07
6.00059e-08
-1.91316e-07
7.35973e-08
-2.7042e-07
7.91031e-08
-3.44279e-07
7.38593e-08
-3.99895e-07
5.56159e-08
2.30196e-08
-4.22915e-07
-1.95453e-09
-4.66306e-09
-3.21635e-08
3.25461e-08
-1.06787e-07
9.52875e-08
-2.32145e-07
1.66632e-07
-4.05395e-07
2.33256e-07
-6.14429e-07
2.82631e-07
-8.38017e-07
3.02691e-07
-1.04647e-06
2.82309e-07
-1.20308e-06
2.12228e-07
8.71625e-08
-1.26722e-06
-1.9899e-08
1.52359e-08
-9.52474e-08
1.07894e-07
-2.41453e-07
2.41493e-07
-4.65335e-07
3.90514e-07
-7.61989e-07
5.29909e-07
-1.11274e-06
6.33378e-07
-1.48416e-06
6.7412e-07
-1.8286e-06
6.26743e-07
-2.08641e-06
4.70045e-07
1.92131e-07
-2.19138e-06
-4.19837e-08
5.72196e-08
-1.74841e-07
2.40751e-07
-4.10098e-07
4.7675e-07
-7.51258e-07
7.31674e-07
-1.18856e-06
9.67212e-07
-1.6952e-06
1.14002e-06
-2.22507e-06
1.20399e-06
-2.7127e-06
1.11437e-06
-3.07607e-06
8.33407e-07
3.39857e-07
-3.22379e-06
-6.68681e-08
1.24088e-07
-2.67996e-07
4.41879e-07
-6.10129e-07
8.18883e-07
-1.09064e-06
1.21218e-06
-1.69169e-06
1.56827e-06
-2.37559e-06
1.82391e-06
-3.08169e-06
1.91009e-06
-3.72592e-06
1.7586e-06
-4.20383e-06
1.31132e-06
5.35033e-07
-4.39901e-06
-9.5002e-08
2.1909e-07
-3.76026e-07
7.22902e-07
-8.45056e-07
1.28791e-06
-1.49118e-06
1.8583e-06
-2.28511e-06
2.3622e-06
-3.17466e-06
2.71347e-06
-4.08178e-06
2.8172e-06
-4.90215e-06
2.57897e-06
-5.50849e-06
1.91766e-06
7.85744e-07
-5.7592e-06
-1.27962e-07
3.47052e-07
-5.03864e-07
1.0988e-06
-1.12454e-06
1.90859e-06
-1.96837e-06
2.70213e-06
-2.99071e-06
3.38454e-06
-4.12052e-06
3.84327e-06
-5.25875e-06
3.95543e-06
-6.27904e-06
3.59927e-06
-7.03124e-06
2.66986e-06
1.10364e-06
-7.34913e-06
-1.68389e-07
5.15441e-07
-6.60147e-07
1.59056e-06
-1.46484e-06
2.71329e-06
-2.54594e-06
3.78323e-06
-3.8379e-06
4.6765e-06
-5.24536e-06
5.25073e-06
-6.64457e-06
5.35465e-06
-7.88646e-06
4.84116e-06
-8.80043e-06
3.58383e-06
1.50246e-06
-9.19926e-06
-2.20207e-07
7.35648e-07
-8.57835e-07
2.22819e-06
-1.88941e-06
3.74486e-06
-3.25501e-06
5.14884e-06
-4.85899e-06
6.28047e-06
-6.57436e-06
6.9661e-06
-8.2499e-06
7.03019e-06
-9.71715e-06
6.30841e-06
-1.07941e-05
4.66083e-06
1.9925e-06
-1.12842e-05
-2.89536e-07
1.02518e-06
-1.11662e-06
3.05527e-06
-2.43101e-06
5.05925e-06
-4.13176e-06
6.84959e-06
-6.07666e-06
8.22537e-06
-8.09741e-06
8.98685e-06
-1.00164e-05
8.94921e-06
-1.16592e-05
7.95119e-06
-1.28561e-05
5.85773e-06
-1.34292e-05
2.56559e-06
-4.03117e-07
-1.97977e-08
-3.48649e-07
-5.4468e-08
-2.73794e-07
-7.48548e-08
-1.92586e-07
-8.12074e-08
-1.17011e-07
-7.55752e-08
-5.59527e-08
-6.1058e-08
-1.47021e-08
-4.12505e-08
5.24935e-09
-1.99514e-08
6.84449e-09
-1.5951e-09
6.84453e-09
-1.21059e-06
-7.6427e-08
-1.05675e-06
-2.08311e-07
-8.46139e-07
-2.85466e-07
-6.17798e-07
-3.09548e-07
-4.04211e-07
-2.89162e-07
-2.2841e-07
-2.36859e-07
-1.02863e-07
-1.66797e-07
-2.96311e-08
-9.31831e-08
-1.1135e-09
-3.01125e-08
5.73113e-09
-2.09773e-06
-1.70082e-07
-1.8443e-06
-4.61741e-07
-1.49697e-06
-6.32798e-07
-1.11866e-06
-6.87856e-07
-7.61078e-07
-6.46742e-07
-4.60335e-07
-5.37601e-07
-2.35794e-07
-3.91339e-07
-9.13913e-08
-2.37585e-07
-1.85296e-08
-1.02974e-07
-1.27983e-08
-3.09257e-06
-3.01302e-07
-2.73623e-06
-8.18081e-07
-2.24543e-06
-1.1236e-06
-1.70639e-06
-1.2269e-06
-1.18999e-06
-1.16314e-06
-7.46215e-07
-9.81373e-07
-4.03203e-07
-7.34351e-07
-1.69755e-07
-4.71034e-07
-4.00763e-08
-2.32652e-07
-5.28745e-08
-4.22985e-06
-4.70455e-07
-3.7645e-06
-1.28343e-06
-3.11786e-06
-1.77024e-06
-2.39962e-06
-1.94514e-06
-1.70121e-06
-1.86155e-06
-1.08912e-06
-1.59346e-06
-6.03697e-07
-1.21977e-06
-2.62187e-07
-8.12544e-07
-6.4442e-08
-4.30397e-07
-1.17316e-07
-5.553e-06
-6.76652e-07
-4.97091e-06
-1.86552e-06
-4.15133e-06
-2.58983e-06
-3.22808e-06
-2.86839e-06
-2.31587e-06
-2.77377e-06
-1.50198e-06
-2.40734e-06
-8.43841e-07
-1.87791e-06
-3.71342e-07
-1.28504e-06
-9.23959e-08
-7.09342e-07
-2.09712e-07
-7.11011e-06
-9.15672e-07
-6.40516e-06
-2.57048e-06
-5.39406e-06
-3.60092e-06
-4.23489e-06
-4.02756e-06
-3.06891e-06
-3.93975e-06
-2.01002e-06
-3.46623e-06
-1.13934e-06
-2.74859e-06
-5.05003e-07
-1.91938e-06
-1.26261e-07
-1.08808e-06
-3.35974e-07
-8.93861e-06
-1.17632e-06
-8.11363e-06
-3.39546e-06
-6.89936e-06
-4.81519e-06
-5.47506e-06
-5.45186e-06
-4.01061e-06
-5.4042e-06
-2.65328e-06
-4.82356e-06
-1.51702e-06
-3.88486e-06
-6.77e-07
-2.7594e-06
-1.70097e-07
-1.59499e-06
-5.06071e-07
-1.10257e-05
-1.43484e-06
-1.0107e-05
-4.31417e-06
-8.70332e-06
-6.21882e-06
-7.00358e-06
-7.1516e-06
-5.20285e-06
-7.20492e-06
-3.48759e-06
-6.53882e-06
-2.01723e-06
-5.35522e-06
-9.08959e-07
-3.86767e-06
-2.30296e-07
-2.27365e-06
-7.36367e-07
-1.32161e-05
-1.64794e-06
-1.22799e-05
-5.25038e-06
-1.0764e-05
-7.73465e-06
-8.83692e-06
-9.07872e-06
-6.70079e-06
-9.34106e-06
-4.58048e-06
-8.65913e-06
-2.69652e-06
-7.23917e-06
-1.23374e-06
-5.33045e-06
-3.16978e-07
-3.19041e-06
-1.05335e-06
-3.56652e-07
1.38184e-06
-1.35233e-06
4.05096e-06
-2.88771e-06
6.59463e-06
-4.7989e-06
8.76077e-06
-6.8864e-06
1.03129e-05
-8.94825e-06
1.10487e-05
-1.08084e-05
1.08093e-05
-1.23315e-05
9.4743e-06
-1.34172e-05
6.94343e-06
3.11753e-06
-1.39691e-05
-4.13252e-07
1.79509e-06
-1.52367e-06
5.16137e-06
-3.15136e-06
8.22233e-06
-5.04813e-06
1.06575e-05
-6.95999e-06
1.22247e-05
-8.68e-06
1.27687e-05
-1.008e-05
1.22094e-05
-1.11164e-05
1.05107e-05
-1.18084e-05
7.63539e-06
3.49914e-06
-1.219e-05
-4.9397e-07
2.28906e-06
-1.73942e-06
6.40682e-06
-3.41699e-06
9.8999e-06
-5.16353e-06
1.24041e-05
-6.68152e-06
1.37427e-05
-7.79875e-06
1.38859e-05
-8.48158e-06
1.28922e-05
-8.81323e-06
1.08423e-05
-8.94997e-06
7.77213e-06
3.61211e-06
-9.06295e-06
-6.23751e-07
2.91281e-06
-2.03397e-06
7.81704e-06
-3.67881e-06
1.15447e-05
-5.06778e-06
1.37931e-05
-5.91331e-06
1.45883e-05
-6.15064e-06
1.41233e-05
-5.89458e-06
1.26361e-05
-5.37329e-06
1.0321e-05
-4.86582e-06
7.26466e-06
3.3977e-06
-4.65141e-06
-8.43298e-07
3.75611e-06
-2.42785e-06
9.4016e-06
-3.85214e-06
1.2969e-05
-4.56057e-06
1.45015e-05
-4.40255e-06
1.44302e-05
-3.51877e-06
1.32395e-05
-2.20716e-06
1.13245e-05
-8.1806e-07
8.93193e-06
3.02984e-07
6.14362e-06
2.86761e-06
8.33082e-07
-1.20088e-06
4.95699e-06
-2.85757e-06
1.10583e-05
-3.66393e-06
1.37754e-05
-3.23388e-06
1.40714e-05
-1.75461e-06
1.2951e-05
3.56444e-07
1.11284e-05
2.65072e-06
9.03027e-06
4.7393e-06
6.84335e-06
6.3023e-06
4.58061e-06
2.11546e-06
7.05445e-06
-1.68516e-06
6.64214e-06
-2.98587e-06
1.2359e-05
-2.47172e-06
1.32612e-05
-4.0183e-07
1.20015e-05
2.53206e-06
1.00171e-05
5.69798e-06
7.96252e-06
8.64053e-06
6.08772e-06
1.10671e-05
4.41676e-06
1.27795e-05
2.86821e-06
1.29871e-06
1.35963e-05
-2.02583e-06
8.66798e-06
-1.81462e-06
1.21478e-05
9.58556e-07
1.04881e-05
4.88395e-06
8.07613e-06
8.92873e-06
5.9723e-06
1.25559e-05
4.33531e-06
1.55382e-05
3.10542e-06
1.78017e-05
2.1533e-06
1.93158e-05
1.35412e-06
5.94396e-07
2.00201e-05
-7.19254e-07
9.38723e-06
3.20649e-06
8.22204e-06
8.62989e-06
5.06466e-06
1.35852e-05
3.12078e-06
1.75784e-05
1.97912e-06
2.06256e-05
1.28813e-06
2.28734e-05
8.5759e-07
2.44598e-05
5.66895e-07
2.54701e-05
3.43865e-07
1.42854e-07
2.59216e-05
9.38723e-06
1.76093e-05
2.26739e-05
2.57947e-05
2.77738e-05
2.9062e-05
2.99196e-05
3.04865e-05
3.08303e-05
3.09732e-05
-1.38726e-05
-1.74452e-06
-1.31389e-05
-5.984e-06
-1.18206e-05
-9.05304e-06
-9.99847e-06
-1.09008e-05
-7.8209e-06
-1.15186e-05
-5.50969e-06
-1.09703e-05
-3.3342e-06
-9.41466e-06
-1.56289e-06
-7.10176e-06
-4.10722e-07
-4.34258e-06
-1.46407e-06
-1.22403e-05
-1.69422e-06
-1.19129e-05
-6.31133e-06
-1.11338e-05
-9.83219e-06
-9.84289e-06
-1.21917e-05
-8.06374e-06
-1.32978e-05
-5.94335e-06
-1.30907e-05
-3.74974e-06
-1.16083e-05
-1.82344e-06
-9.02806e-06
-4.95654e-07
-5.67037e-06
-1.95972e-06
-9.23933e-06
-1.51783e-06
-9.38859e-06
-6.16207e-06
-9.31885e-06
-9.90193e-06
-8.81999e-06
-1.26906e-05
-7.74953e-06
-1.43682e-05
-6.11149e-06
-1.47288e-05
-4.10449e-06
-1.36153e-05
-2.10984e-06
-1.10227e-05
-6.03136e-07
-7.17707e-06
-2.56286e-06
-4.91182e-06
-1.25742e-06
-5.53393e-06
-5.53996e-06
-6.24964e-06
-9.18622e-06
-6.73289e-06
-1.22073e-05
-6.67084e-06
-1.44303e-05
-5.86434e-06
-1.55353e-05
-4.34122e-06
-1.51384e-05
-2.4337e-06
-1.29302e-05
-7.53734e-07
-8.85704e-06
-3.31659e-06
5.37721e-07
-9.62062e-07
-4.69692e-07
-4.53255e-06
-1.90994e-06
-7.74597e-06
-3.42059e-06
-1.06967e-05
-4.57542e-06
-1.32754e-05
-4.96068e-06
-1.515e-05
-4.32704e-06
-1.5772e-05
-2.78873e-06
-1.44685e-05
-9.83507e-07
-1.06623e-05
-4.3001e-06
6.76574e-06
-6.73356e-07
5.53348e-06
-3.30028e-06
3.5817e-06
-5.79419e-06
1.20625e-06
-8.32123e-06
-1.17487e-06
-1.08943e-05
-3.01751e-06
-1.33074e-05
-3.75743e-06
-1.50321e-05
-3.07423e-06
-1.51517e-05
-1.33041e-06
-1.24061e-05
-5.6305e-06
1.3341e-05
-4.18055e-07
1.20874e-05
-2.04668e-06
9.96368e-06
-3.6705e-06
7.11671e-06
-5.47427e-06
3.80765e-06
-7.58526e-06
5.15975e-07
-1.00157e-05
-2.01471e-06
-1.25014e-05
-2.91069e-06
-1.42558e-05
-1.75411e-06
-1.35627e-05
-7.38461e-06
1.98128e-05
-2.10792e-07
1.8744e-05
-9.77808e-07
1.68488e-05
-1.77533e-06
1.41115e-05
-2.73691e-06
1.05423e-05
-4.01613e-06
6.3149e-06
-5.78827e-06
1.97782e-06
-8.16435e-06
-1.31173e-06
-1.09662e-05
-1.93076e-06
-1.29436e-05
-9.31537e-06
2.57751e-05
-6.42802e-08
2.50594e-05
-2.62098e-07
2.37592e-05
-4.75085e-07
2.17731e-05
-7.50853e-07
1.89215e-05
-1.16454e-06
1.49852e-05
-1.85199e-06
9.87207e-06
-3.05119e-06
4.06936e-06
-5.16349e-06
-3.53442e-07
-8.52084e-06
-9.66881e-06
3.09089e-05
3.06468e-05
3.01717e-05
2.94209e-05
2.82563e-05
2.64043e-05
2.33531e-05
1.81897e-05
9.66881e-06
)
;

boundaryField
{
    movingWall
    {
        type            calculated;
        value           uniform 0;
    }
    fixedWalls
    {
        type            calculated;
        value           uniform 0;
    }
    frontAndBack
    {
        type            empty;
        value           nonuniform List<scalar> 0();
    }
}


// ************************************************************************* //
