/*--------------------------------*- C++ -*----------------------------------*\
| =========                 |                                                 |
| \\      /  F ield         | OpenFOAM: The Open Source CFD Toolbox           |
|  \\    /   O peration     | Version:  2312                                  |
|   \\  /    A nd           | Website:  www.openfoam.com                      |
|    \\/     M anipulation  |                                                 |
\*---------------------------------------------------------------------------*/
FoamFile
{
    version     2.0;
    format      ascii;
    arch        "LSB;label=32;scalar=64";
    class       volVectorField;
    location    "0.8";
    object      U;
}
// * * * * * * * * * * * * * * * * * * * * * * * * * * * * * * * * * * * * * //

dimensions      [0 1 -1 0 0 0 0];

internalField   nonuniform List<vector> 
400
(
(0.000129464 -0.000129384 0)
(0.000242505 -5.20193e-05 0)
(-7.36497e-05 0.000130438 0)
(-0.000976406 0.000309247 0)
(-0.00247147 0.000444493 0)
(-0.00445346 0.000518771 0)
(-0.00672738 0.00052398 0)
(-0.00901665 0.000457828 0)
(-0.0109714 0.000322542 0)
(-0.0121848 0.000125838 0)
(5.96916e-05 -0.000248689 0)
(-0.000233292 0.000245183 0)
(-0.00159589 0.00109929 0)
(-0.00429586 0.00194615 0)
(-0.00837149 0.00260043 0)
(-0.0136217 0.00295482 0)
(-0.0195935 0.0029481 0)
(-0.0255933 0.00255552 0)
(-0.0307128 0.00178537 0)
(-0.0338835 0.00068443 0)
(-0.000114015 4.40003e-05 0)
(-0.00108044 0.00159621 0)
(-0.00378248 0.00375724 0)
(-0.00842159 0.00587617 0)
(-0.0149929 0.00752394 0)
(-0.0232152 0.00840196 0)
(-0.0324399 0.00831713 0)
(-0.0416448 0.00717746 0)
(-0.0494694 0.00499345 0)
(-0.0543009 0.00189665 0)
(-0.000298104 0.000926119 0)
(-0.00201196 0.00435017 0)
(-0.00620547 0.00844778 0)
(-0.0129195 0.0123378 0)
(-0.0220196 0.0153254 0)
(-0.0331091 0.0168656 0)
(-0.0453555 0.0165731 0)
(-0.0574585 0.0142448 0)
(-0.0676874 0.00988241 0)
(-0.0739851 0.00373742 0)
(-0.000472597 0.00249337 0)
(-0.00294321 0.0087956 0)
(-0.00870185 0.0155625 0)
(-0.0176024 0.0217223 0)
(-0.0293191 0.0263246 0)
(-0.0432901 0.0285637 0)
(-0.0584812 0.0278365 0)
(-0.0733342 0.0238074 0)
(-0.0858033 0.0164676 0)
(-0.0934675 0.00621929 0)
(-0.000640639 0.00482619 0)
(-0.00387256 0.0152222 0)
(-0.0112535 0.0255686 0)
(-0.0224533 0.0345936 0)
(-0.0369148 0.041093 0)
(-0.0538622 0.0440042 0)
(-0.0720281 0.0425111 0)
(-0.0895963 0.0361543 0)
(-0.104244 0.0249331 0)
(-0.113253 0.00943471 0)
(-0.000813549 0.00803567 0)
(-0.00483907 0.0239746 0)
(-0.0139328 0.0390129 0)
(-0.0275797 0.0516236 0)
(-0.0449542 0.0603325 0)
(-0.0650185 0.0638328 0)
(-0.0862361 0.0611282 0)
(-0.106528 0.0516808 0)
(-0.123334 0.0355447 0)
(-0.133706 0.013533 0)
(-0.00100692 0.0122947 0)
(-0.0059068 0.035523 0)
(-0.016874 0.0565926 0)
(-0.0331766 0.0736332 0)
(-0.0536622 0.084872 0)
(-0.0769717 0.088786 0)
(-0.101264 0.0842722 0)
(-0.124209 0.0708093 0)
(-0.143071 0.0485926 0)
(-0.154791 0.0187084 0)
(-0.00124038 0.0178702 0)
(-0.00716076 0.0505388 0)
(-0.0202584 0.0792358 0)
(-0.0394924 0.101635 0)
(-0.0632684 0.115645 0)
(-0.0898182 0.119601 0)
(-0.116965 0.112442 0)
(-0.142179 0.0938395 0)
(-0.162696 0.0642746 0)
(-0.175555 0.0251591 0)
(-0.00154123 0.0251664 0)
(-0.00872122 0.0699853 0)
(-0.0243315 0.108169 0)
(-0.0468106 0.136806 0)
(-0.0738997 0.153526 0)
(-0.103282 0.156721 0)
(-0.132437 0.145673 0)
(-0.158787 0.120565 0)
(-0.179841 0.0823955 0)
(-0.193145 0.0329525 0)
(-0.0122375 -0.000104693 0)
(-0.011093 -0.000313963 0)
(-0.00913823 -0.000464322 0)
(-0.00679808 -0.000539716 0)
(-0.00445941 -0.000534651 0)
(-0.00243064 -0.000453198 0)
(-0.000920947 -0.000308204 0)
(-3.15619e-05 -0.000122354 0)
(0.000260839 6.06189e-05 0)
(0.00013298 0.000131786 0)
(-0.0339994 -0.000589619 0)
(-0.030981 -0.00174672 0)
(-0.0258639 -0.00258492 0)
(-0.0197564 -0.00301986 0)
(-0.0136458 -0.00302836 0)
(-0.00829305 -0.00264282 0)
(-0.00418119 -0.00194536 0)
(-0.00150359 -0.00106608 0)
(-0.000188475 -0.000206144 0)
(7.01073e-05 0.000265168 0)
(-0.054463 -0.00166561 0)
(-0.0498469 -0.00489833 0)
(-0.0420332 -0.0072482 0)
(-0.0326861 -0.00849267 0)
(-0.0232712 -0.00858463 0)
(-0.0149025 -0.00763372 0)
(-0.00827216 -0.00588231 0)
(-0.00365544 -0.00368253 0)
(-0.00101559 -0.00150042 0)
(-9.81655e-05 4.72191e-06 0)
(-0.074202 -0.00330772 0)
(-0.068201 -0.00970015 0)
(-0.0580086 -0.0143671 0)
(-0.0457388 -0.0168925 0)
(-0.0332497 -0.0172065 0)
(-0.0219585 -0.0155405 0)
(-0.0127605 -0.0123658 0)
(-0.00605484 -0.00832282 0)
(-0.0019296 -0.00417537 0)
(-0.000276734 -0.000828946 0)
(-0.0937787 -0.00549461 0)
(-0.0865602 -0.0161411 0)
(-0.074193 -0.0239789 0)
(-0.0591561 -0.0283444 0)
(-0.0436489 -0.0291312 0)
(-0.0293837 -0.0267101 0)
(-0.0174906 -0.0218128 0)
(-0.00855241 -0.0153956 0)
(-0.00284901 -0.00852602 0)
(-0.00044564 -0.00233138 0)
(-0.113737 -0.0082271 0)
(-0.105456 -0.0243389 0)
(-0.0910526 -0.0363465 0)
(-0.0732994 -0.0432689 0)
(-0.0547082 -0.044917 0)
(-0.0373066 -0.0417796 0)
(-0.0225144 -0.0348494 0)
(-0.011166 -0.0254129 0)
(-0.00378487 -0.0148641 0)
(-0.000610189 -0.0045862 0)
(-0.134488 -0.0114795 0)
(-0.125339 -0.0344282 0)
(-0.109056 -0.0518059 0)
(-0.0886181 -0.0622171 0)
(-0.0668214 -0.0652951 0)
(-0.0460406 -0.0615742 0)
(-0.0280556 -0.0522746 0)
(-0.014033 -0.0390242 0)
(-0.004801 -0.023596 0)
(-0.00078643 -0.00772236 0)
(-0.156043 -0.0151545 0)
(-0.146347 -0.0464706 0)
(-0.128495 -0.0706593 0)
(-0.105532 -0.0857825 0)
(-0.0804707 -0.09113 0)
(-0.0560474 -0.087131 0)
(-0.0344836 -0.075144 0)
(-0.0173889 -0.0571332 0)
(-0.00600173 -0.0353293 0)
(-0.000998063 -0.0119608 0)
(-0.177472 -0.0190246 0)
(-0.167807 -0.06031 0)
(-0.149081 -0.0929904 0)
(-0.124147 -0.114433 0)
(-0.096053 -0.123323 0)
(-0.0678508 -0.119703 0)
(-0.042281 -0.104865 0)
(-0.0215597 -0.0810432 0)
(-0.00753278 -0.0510047 0)
(-0.00127765 -0.0176711 0)
(-0.195869 -0.0226491 0)
(-0.187238 -0.0752853 0)
(-0.169091 -0.118247 0)
(-0.14361 -0.148076 0)
(-0.113477 -0.162472 0)
(-0.0818425 -0.160593 0)
(-0.0519907 -0.14322 0)
(-0.026973 -0.112606 0)
(-0.00959853 -0.072065 0)
(-0.00167208 -0.0254545 0)
(-0.00194201 0.0344387 0)
(-0.0107209 0.0942845 0)
(-0.0292933 0.143535 0)
(-0.0551376 0.178597 0)
(-0.0849486 0.197056 0)
(-0.115698 0.197842 0)
(-0.144628 0.181167 0)
(-0.169472 0.148251 0)
(-0.188577 0.100931 0)
(-0.200662 0.0413661 0)
(-0.00250227 0.0455063 0)
(-0.0133422 0.122469 0)
(-0.0352822 0.183033 0)
(-0.0640771 0.223031 0)
(-0.0948722 0.240682 0)
(-0.123905 0.236391 0)
(-0.148571 0.21219 0)
(-0.167576 0.170955 0)
(-0.180863 0.115597 0)
(-0.189077 0.0484936 0)
(-0.0033829 0.0584897 0)
(-0.0170448 0.153969 0)
(-0.0427321 0.224458 0)
(-0.0733063 0.265905 0)
(-0.101927 0.278597 0)
(-0.124518 0.265856 0)
(-0.139498 0.232518 0)
(-0.147462 0.183512 0)
(-0.150652 0.12274 0)
(-0.152099 0.052436 0)
(-0.00494729 0.0744219 0)
(-0.0227507 0.189552 0)
(-0.0523111 0.266501 0)
(-0.0820076 0.303492 0)
(-0.103154 0.305553 0)
(-0.112716 0.280781 0)
(-0.111607 0.237523 0)
(-0.103292 0.182563 0)
(-0.0926532 0.12019 0)
(-0.0849903 0.0519266 0)
(-0.00791853 0.0953131 0)
(-0.0318387 0.230076 0)
(-0.0639456 0.306314 0)
(-0.0869114 0.329973 0)
(-0.0921879 0.314964 0)
(-0.0805589 0.275727 0)
(-0.0571991 0.223753 0)
(-0.0288993 0.166449 0)
(-0.00267338 0.107311 0)
(0.0148657 0.0465102 0)
(-0.0134525 0.124673 0)
(-0.0454676 0.275127 0)
(-0.0743343 0.337399 0)
(-0.0790428 0.336434 0)
(-0.0568594 0.299422 0)
(-0.0161042 0.246659 0)
(0.0330001 0.190371 0)
(0.0813562 0.136251 0)
(0.121532 0.0856041 0)
(0.14731 0.0368995 0)
(-0.0222094 0.168517 0)
(-0.0611237 0.319425 0)
(-0.0707921 0.345918 0)
(-0.0385284 0.310233 0)
(0.0228531 0.252394 0)
(0.0960334 0.193077 0)
(0.168163 0.14057 0)
(0.230986 0.0963183 0)
(0.27928 0.0587342 0)
(0.309078 0.0249476 0)
(-0.0290502 0.23318 0)
(-0.0620257 0.344061 0)
(-0.0194504 0.308013 0)
(0.0711546 0.238775 0)
(0.174381 0.173473 0)
(0.271465 0.121555 0)
(0.354124 0.0828946 0)
(0.419302 0.054198 0)
(0.466166 0.0319812 0)
(0.493936 0.0132368 0)
(0.0066064 0.28364 0)
(0.0187046 0.300474 0)
(0.154197 0.205713 0)
(0.303784 0.130514 0)
(0.425297 0.0818586 0)
(0.518743 0.0514706 0)
(0.588778 0.0325243 0)
(0.639419 0.0201901 0)
(0.67375 0.0114682 0)
(0.69326 0.00451921 0)
(0.30431 0.145102 0)
(0.407631 0.125661 0)
(0.582962 0.0698436 0)
(0.708904 0.0364285 0)
(0.781803 0.0193426 0)
(0.827103 0.0106364 0)
(0.857104 0.00609501 0)
(0.877144 0.00353865 0)
(0.890013 0.00190421 0)
(0.896962 0.00067493 0)
(-0.204053 -0.0251295 0)
(-0.197989 -0.0890691 0)
(-0.183071 -0.143274 0)
(-0.16007 -0.183517 0)
(-0.13055 -0.2061 0)
(-0.0971951 -0.208529 0)
(-0.0636191 -0.190195 0)
(-0.0339114 -0.152682 0)
(-0.0123952 -0.0995714 0)
(-0.00223306 -0.035861 0)
(-0.19247 -0.0255461 0)
(-0.190581 -0.0979413 0)
(-0.182343 -0.16206 0)
(-0.166398 -0.213383 0)
(-0.142226 -0.246713 0)
(-0.111033 -0.257144 0)
(-0.0760308 -0.241394 0)
(-0.0422189 -0.198986 0)
(-0.0160381 -0.132817 0)
(-0.00301598 -0.0489051 0)
(-0.154432 -0.0238357 0)
(-0.157774 -0.0996359 0)
(-0.159365 -0.170028 0)
(-0.155457 -0.231069 0)
(-0.142715 -0.276595 0)
(-0.119633 -0.29904 0)
(-0.0876344 -0.291183 0)
(-0.0517441 -0.248422 0)
(-0.0208262 -0.170903 0)
(-0.00416409 -0.0646995 0)
(-0.0851644 -0.020481 0)
(-0.0940086 -0.0935279 0)
(-0.107494 -0.164843 0)
(-0.119948 -0.232101 0)
(-0.125179 -0.289398 0)
(-0.117982 -0.327254 0)
(-0.0960688 -0.333912 0)
(-0.0623829 -0.298225 0)
(-0.0274848 -0.213918 0)
(-0.00602802 -0.0841734 0)
(0.0175049 -0.0162142 0)
(0.00385766 -0.0803243 0)
(-0.0215835 -0.146213 0)
(-0.0524908 -0.213964 0)
(-0.0809358 -0.279626 0)
(-0.0981187 -0.333881 0)
(-0.0963321 -0.361555 0)
(-0.0729601 -0.3434 0)
(-0.0370831 -0.261499 0)
(-0.00931444 -0.109101 0)
(0.152549 -0.0117752 0)
(0.135723 -0.0620593 0)
(0.10087 -0.116443 0)
(0.0532401 -0.17745 0)
(0.000189277 -0.244512 0)
(-0.0479232 -0.311511 0)
(-0.0781268 -0.363553 0)
(-0.0786636 -0.374904 0)
(-0.0501192 -0.311346 0)
(-0.0150796 -0.142576 0)
(0.315722 -0.00770516 0)
(0.298018 -0.0417126 0)
(0.258873 -0.0803166 0)
(0.201016 -0.127461 0)
(0.128545 -0.18606 0)
(0.0494007 -0.255706 0)
(-0.0221502 -0.32756 0)
(-0.0653711 -0.376982 0)
(-0.062648 -0.355662 0)
(-0.0235078 -0.189889 0)
(0.500149 -0.00430785 0)
(0.484206 -0.022688 0)
(0.447698 -0.0444698 0)
(0.39055 -0.0732567 0)
(0.312152 -0.113539 0)
(0.213902 -0.170131 0)
(0.103209 -0.244622 0)
(-0.000161676 -0.326676 0)
(-0.0559126 -0.37278 0)
(-0.0280097 -0.255034 0)
(0.697302 -0.00181216 0)
(0.685778 -0.00847785 0)
(0.659274 -0.016674 0)
(0.616163 -0.028327 0)
(0.552617 -0.0466671 0)
(0.463122 -0.0772869 0)
(0.340967 -0.128768 0)
(0.183837 -0.210941 0)
(0.035655 -0.313831 0)
(0.014083 -0.296757 0)
(0.898065 -0.000420371 0)
(0.893378 -0.00158065 0)
(0.882978 -0.00305931 0)
(0.865781 -0.00532705 0)
(0.839062 -0.0093617 0)
(0.797361 -0.0173333 0)
(0.728029 -0.0338474 0)
(0.60314 -0.0677883 0)
(0.421851 -0.126097 0)
(0.310648 -0.147393 0)
)
;

boundaryField
{
    movingWall
    {
        type            fixedValue;
        value           uniform (1 0 0);
    }
    fixedWalls
    {
        type            noSlip;
    }
    frontAndBack
    {
        type            empty;
    }
}


// ************************************************************************* //
